+ 0.1 0 4 tcp 40 ------- 1 0.0 3.0 0 0
- 0.1 0 4 tcp 40 ------- 1 0.0 3.0 0 0
r 0.10416 0 4 tcp 40 ------- 1 0.0 3.0 0 0
+ 0.10416 4 3 tcp 40 ------- 1 0.0 3.0 0 0
- 0.10416 4 3 tcp 40 ------- 1 0.0 3.0 0 0
r 0.10832 4 3 tcp 40 ------- 1 0.0 3.0 0 0
+ 0.10832 3 4 ack 40 ------- 1 3.0 0.0 0 1
- 0.10832 3 4 ack 40 ------- 1 3.0 0.0 0 1
r 0.11248 3 4 ack 40 ------- 1 3.0 0.0 0 1
+ 0.11248 4 0 ack 40 ------- 1 3.0 0.0 0 1
- 0.11248 4 0 ack 40 ------- 1 3.0 0.0 0 1
r 0.11664 4 0 ack 40 ------- 1 3.0 0.0 0 1
+ 0.11664 0 4 tcp 1040 ------- 1 0.0 3.0 1 2
- 0.11664 0 4 tcp 1040 ------- 1 0.0 3.0 1 2
+ 0.11664 0 4 tcp 1040 ------- 1 0.0 3.0 2 3
- 0.1208 0 4 tcp 1040 ------- 1 0.0 3.0 2 3
r 0.1248 0 4 tcp 1040 ------- 1 0.0 3.0 1 2
+ 0.1248 4 3 tcp 1040 ------- 1 0.0 3.0 1 2
- 0.1248 4 3 tcp 1040 ------- 1 0.0 3.0 1 2
r 0.12896 0 4 tcp 1040 ------- 1 0.0 3.0 2 3
+ 0.12896 4 3 tcp 1040 ------- 1 0.0 3.0 2 3
- 0.12896 4 3 tcp 1040 ------- 1 0.0 3.0 2 3
r 0.13296 4 3 tcp 1040 ------- 1 0.0 3.0 1 2
+ 0.13296 3 4 ack 40 ------- 1 3.0 0.0 1 4
- 0.13296 3 4 ack 40 ------- 1 3.0 0.0 1 4
r 0.13712 4 3 tcp 1040 ------- 1 0.0 3.0 2 3
+ 0.13712 3 4 ack 40 ------- 1 3.0 0.0 2 5
- 0.13712 3 4 ack 40 ------- 1 3.0 0.0 2 5
r 0.13712 3 4 ack 40 ------- 1 3.0 0.0 1 4
+ 0.13712 4 0 ack 40 ------- 1 3.0 0.0 1 4
- 0.13712 4 0 ack 40 ------- 1 3.0 0.0 1 4
r 0.14128 3 4 ack 40 ------- 1 3.0 0.0 2 5
+ 0.14128 4 0 ack 40 ------- 1 3.0 0.0 2 5
- 0.14128 4 0 ack 40 ------- 1 3.0 0.0 2 5
r 0.14128 4 0 ack 40 ------- 1 3.0 0.0 1 4
+ 0.14128 0 4 tcp 1040 ------- 1 0.0 3.0 3 6
- 0.14128 0 4 tcp 1040 ------- 1 0.0 3.0 3 6
+ 0.14128 0 4 tcp 1040 ------- 1 0.0 3.0 4 7
r 0.14544 4 0 ack 40 ------- 1 3.0 0.0 2 5
+ 0.14544 0 4 tcp 1040 ------- 1 0.0 3.0 5 8
+ 0.14544 0 4 tcp 1040 ------- 1 0.0 3.0 6 9
- 0.14544 0 4 tcp 1040 ------- 1 0.0 3.0 4 7
r 0.14944 0 4 tcp 1040 ------- 1 0.0 3.0 3 6
+ 0.14944 4 3 tcp 1040 ------- 1 0.0 3.0 3 6
- 0.14944 4 3 tcp 1040 ------- 1 0.0 3.0 3 6
- 0.1496 0 4 tcp 1040 ------- 1 0.0 3.0 5 8
r 0.1536 0 4 tcp 1040 ------- 1 0.0 3.0 4 7
+ 0.1536 4 3 tcp 1040 ------- 1 0.0 3.0 4 7
- 0.1536 4 3 tcp 1040 ------- 1 0.0 3.0 4 7
- 0.15376 0 4 tcp 1040 ------- 1 0.0 3.0 6 9
r 0.1576 4 3 tcp 1040 ------- 1 0.0 3.0 3 6
+ 0.1576 3 4 ack 40 ------- 1 3.0 0.0 3 10
- 0.1576 3 4 ack 40 ------- 1 3.0 0.0 3 10
r 0.15776 0 4 tcp 1040 ------- 1 0.0 3.0 5 8
+ 0.15776 4 3 tcp 1040 ------- 1 0.0 3.0 5 8
- 0.15776 4 3 tcp 1040 ------- 1 0.0 3.0 5 8
r 0.16176 4 3 tcp 1040 ------- 1 0.0 3.0 4 7
+ 0.16176 3 4 ack 40 ------- 1 3.0 0.0 4 11
- 0.16176 3 4 ack 40 ------- 1 3.0 0.0 4 11
r 0.16176 3 4 ack 40 ------- 1 3.0 0.0 3 10
+ 0.16176 4 0 ack 40 ------- 1 3.0 0.0 3 10
- 0.16176 4 0 ack 40 ------- 1 3.0 0.0 3 10
r 0.16192 0 4 tcp 1040 ------- 1 0.0 3.0 6 9
+ 0.16192 4 3 tcp 1040 ------- 1 0.0 3.0 6 9
- 0.16192 4 3 tcp 1040 ------- 1 0.0 3.0 6 9
r 0.16592 4 3 tcp 1040 ------- 1 0.0 3.0 5 8
+ 0.16592 3 4 ack 40 ------- 1 3.0 0.0 5 12
- 0.16592 3 4 ack 40 ------- 1 3.0 0.0 5 12
r 0.16592 3 4 ack 40 ------- 1 3.0 0.0 4 11
+ 0.16592 4 0 ack 40 ------- 1 3.0 0.0 4 11
- 0.16592 4 0 ack 40 ------- 1 3.0 0.0 4 11
r 0.16592 4 0 ack 40 ------- 1 3.0 0.0 3 10
+ 0.16592 0 4 tcp 1040 ------- 1 0.0 3.0 7 13
- 0.16592 0 4 tcp 1040 ------- 1 0.0 3.0 7 13
+ 0.16592 0 4 tcp 1040 ------- 1 0.0 3.0 8 14
r 0.17008 4 3 tcp 1040 ------- 1 0.0 3.0 6 9
+ 0.17008 3 4 ack 40 ------- 1 3.0 0.0 6 15
- 0.17008 3 4 ack 40 ------- 1 3.0 0.0 6 15
r 0.17008 3 4 ack 40 ------- 1 3.0 0.0 5 12
+ 0.17008 4 0 ack 40 ------- 1 3.0 0.0 5 12
- 0.17008 4 0 ack 40 ------- 1 3.0 0.0 5 12
r 0.17008 4 0 ack 40 ------- 1 3.0 0.0 4 11
+ 0.17008 0 4 tcp 1040 ------- 1 0.0 3.0 9 16
+ 0.17008 0 4 tcp 1040 ------- 1 0.0 3.0 10 17
- 0.17008 0 4 tcp 1040 ------- 1 0.0 3.0 8 14
r 0.17408 0 4 tcp 1040 ------- 1 0.0 3.0 7 13
+ 0.17408 4 3 tcp 1040 ------- 1 0.0 3.0 7 13
- 0.17408 4 3 tcp 1040 ------- 1 0.0 3.0 7 13
r 0.17424 3 4 ack 40 ------- 1 3.0 0.0 6 15
+ 0.17424 4 0 ack 40 ------- 1 3.0 0.0 6 15
- 0.17424 4 0 ack 40 ------- 1 3.0 0.0 6 15
r 0.17424 4 0 ack 40 ------- 1 3.0 0.0 5 12
+ 0.17424 0 4 tcp 1040 ------- 1 0.0 3.0 11 18
+ 0.17424 0 4 tcp 1040 ------- 1 0.0 3.0 12 19
- 0.17424 0 4 tcp 1040 ------- 1 0.0 3.0 9 16
r 0.17824 0 4 tcp 1040 ------- 1 0.0 3.0 8 14
+ 0.17824 4 3 tcp 1040 ------- 1 0.0 3.0 8 14
- 0.17824 4 3 tcp 1040 ------- 1 0.0 3.0 8 14
r 0.1784 4 0 ack 40 ------- 1 3.0 0.0 6 15
+ 0.1784 0 4 tcp 1040 ------- 1 0.0 3.0 13 20
+ 0.1784 0 4 tcp 1040 ------- 1 0.0 3.0 14 21
- 0.1784 0 4 tcp 1040 ------- 1 0.0 3.0 10 17
r 0.18224 4 3 tcp 1040 ------- 1 0.0 3.0 7 13
+ 0.18224 3 4 ack 40 ------- 1 3.0 0.0 7 22
- 0.18224 3 4 ack 40 ------- 1 3.0 0.0 7 22
r 0.1824 0 4 tcp 1040 ------- 1 0.0 3.0 9 16
+ 0.1824 4 3 tcp 1040 ------- 1 0.0 3.0 9 16
- 0.1824 4 3 tcp 1040 ------- 1 0.0 3.0 9 16
- 0.18256 0 4 tcp 1040 ------- 1 0.0 3.0 11 18
r 0.1864 4 3 tcp 1040 ------- 1 0.0 3.0 8 14
+ 0.1864 3 4 ack 40 ------- 1 3.0 0.0 8 23
- 0.1864 3 4 ack 40 ------- 1 3.0 0.0 8 23
r 0.1864 3 4 ack 40 ------- 1 3.0 0.0 7 22
+ 0.1864 4 0 ack 40 ------- 1 3.0 0.0 7 22
- 0.1864 4 0 ack 40 ------- 1 3.0 0.0 7 22
r 0.18656 0 4 tcp 1040 ------- 1 0.0 3.0 10 17
+ 0.18656 4 3 tcp 1040 ------- 1 0.0 3.0 10 17
- 0.18656 4 3 tcp 1040 ------- 1 0.0 3.0 10 17
- 0.18672 0 4 tcp 1040 ------- 1 0.0 3.0 12 19
r 0.19056 4 3 tcp 1040 ------- 1 0.0 3.0 9 16
+ 0.19056 3 4 ack 40 ------- 1 3.0 0.0 9 24
- 0.19056 3 4 ack 40 ------- 1 3.0 0.0 9 24
r 0.19056 3 4 ack 40 ------- 1 3.0 0.0 8 23
+ 0.19056 4 0 ack 40 ------- 1 3.0 0.0 8 23
- 0.19056 4 0 ack 40 ------- 1 3.0 0.0 8 23
r 0.19056 4 0 ack 40 ------- 1 3.0 0.0 7 22
+ 0.19056 0 4 tcp 1040 ------- 1 0.0 3.0 15 25
+ 0.19056 0 4 tcp 1040 ------- 1 0.0 3.0 16 26
r 0.19072 0 4 tcp 1040 ------- 1 0.0 3.0 11 18
+ 0.19072 4 3 tcp 1040 ------- 1 0.0 3.0 11 18
- 0.19072 4 3 tcp 1040 ------- 1 0.0 3.0 11 18
- 0.19088 0 4 tcp 1040 ------- 1 0.0 3.0 13 20
r 0.19472 4 3 tcp 1040 ------- 1 0.0 3.0 10 17
+ 0.19472 3 4 ack 40 ------- 1 3.0 0.0 10 27
- 0.19472 3 4 ack 40 ------- 1 3.0 0.0 10 27
r 0.19472 3 4 ack 40 ------- 1 3.0 0.0 9 24
+ 0.19472 4 0 ack 40 ------- 1 3.0 0.0 9 24
- 0.19472 4 0 ack 40 ------- 1 3.0 0.0 9 24
r 0.19472 4 0 ack 40 ------- 1 3.0 0.0 8 23
+ 0.19472 0 4 tcp 1040 ------- 1 0.0 3.0 17 28
+ 0.19472 0 4 tcp 1040 ------- 1 0.0 3.0 18 29
r 0.19488 0 4 tcp 1040 ------- 1 0.0 3.0 12 19
+ 0.19488 4 3 tcp 1040 ------- 1 0.0 3.0 12 19
- 0.19488 4 3 tcp 1040 ------- 1 0.0 3.0 12 19
- 0.19504 0 4 tcp 1040 ------- 1 0.0 3.0 14 21
r 0.19888 4 3 tcp 1040 ------- 1 0.0 3.0 11 18
+ 0.19888 3 4 ack 40 ------- 1 3.0 0.0 11 30
- 0.19888 3 4 ack 40 ------- 1 3.0 0.0 11 30
r 0.19888 3 4 ack 40 ------- 1 3.0 0.0 10 27
+ 0.19888 4 0 ack 40 ------- 1 3.0 0.0 10 27
- 0.19888 4 0 ack 40 ------- 1 3.0 0.0 10 27
r 0.19888 4 0 ack 40 ------- 1 3.0 0.0 9 24
+ 0.19888 0 4 tcp 1040 ------- 1 0.0 3.0 19 31
+ 0.19888 0 4 tcp 1040 ------- 1 0.0 3.0 20 32
r 0.19904 0 4 tcp 1040 ------- 1 0.0 3.0 13 20
+ 0.19904 4 3 tcp 1040 ------- 1 0.0 3.0 13 20
- 0.19904 4 3 tcp 1040 ------- 1 0.0 3.0 13 20
- 0.1992 0 4 tcp 1040 ------- 1 0.0 3.0 15 25
r 0.20304 4 3 tcp 1040 ------- 1 0.0 3.0 12 19
+ 0.20304 3 4 ack 40 ------- 1 3.0 0.0 12 33
- 0.20304 3 4 ack 40 ------- 1 3.0 0.0 12 33
r 0.20304 3 4 ack 40 ------- 1 3.0 0.0 11 30
+ 0.20304 4 0 ack 40 ------- 1 3.0 0.0 11 30
- 0.20304 4 0 ack 40 ------- 1 3.0 0.0 11 30
r 0.20304 4 0 ack 40 ------- 1 3.0 0.0 10 27
+ 0.20304 0 4 tcp 1040 ------- 1 0.0 3.0 21 34
+ 0.20304 0 4 tcp 1040 ------- 1 0.0 3.0 22 35
r 0.2032 0 4 tcp 1040 ------- 1 0.0 3.0 14 21
+ 0.2032 4 3 tcp 1040 ------- 1 0.0 3.0 14 21
- 0.2032 4 3 tcp 1040 ------- 1 0.0 3.0 14 21
- 0.20336 0 4 tcp 1040 ------- 1 0.0 3.0 16 26
r 0.2072 4 3 tcp 1040 ------- 1 0.0 3.0 13 20
+ 0.2072 3 4 ack 40 ------- 1 3.0 0.0 13 36
- 0.2072 3 4 ack 40 ------- 1 3.0 0.0 13 36
r 0.2072 3 4 ack 40 ------- 1 3.0 0.0 12 33
+ 0.2072 4 0 ack 40 ------- 1 3.0 0.0 12 33
- 0.2072 4 0 ack 40 ------- 1 3.0 0.0 12 33
r 0.2072 4 0 ack 40 ------- 1 3.0 0.0 11 30
+ 0.2072 0 4 tcp 1040 ------- 1 0.0 3.0 23 37
+ 0.2072 0 4 tcp 1040 ------- 1 0.0 3.0 24 38
r 0.20736 0 4 tcp 1040 ------- 1 0.0 3.0 15 25
+ 0.20736 4 3 tcp 1040 ------- 1 0.0 3.0 15 25
- 0.20736 4 3 tcp 1040 ------- 1 0.0 3.0 15 25
- 0.20752 0 4 tcp 1040 ------- 1 0.0 3.0 17 28
r 0.21136 4 3 tcp 1040 ------- 1 0.0 3.0 14 21
+ 0.21136 3 4 ack 40 ------- 1 3.0 0.0 14 39
- 0.21136 3 4 ack 40 ------- 1 3.0 0.0 14 39
r 0.21136 3 4 ack 40 ------- 1 3.0 0.0 13 36
+ 0.21136 4 0 ack 40 ------- 1 3.0 0.0 13 36
- 0.21136 4 0 ack 40 ------- 1 3.0 0.0 13 36
r 0.21136 4 0 ack 40 ------- 1 3.0 0.0 12 33
+ 0.21136 0 4 tcp 1040 ------- 1 0.0 3.0 25 40
+ 0.21136 0 4 tcp 1040 ------- 1 0.0 3.0 26 41
r 0.21152 0 4 tcp 1040 ------- 1 0.0 3.0 16 26
+ 0.21152 4 3 tcp 1040 ------- 1 0.0 3.0 16 26
- 0.21152 4 3 tcp 1040 ------- 1 0.0 3.0 16 26
- 0.21168 0 4 tcp 1040 ------- 1 0.0 3.0 18 29
r 0.21552 4 3 tcp 1040 ------- 1 0.0 3.0 15 25
+ 0.21552 3 4 ack 40 ------- 1 3.0 0.0 15 42
- 0.21552 3 4 ack 40 ------- 1 3.0 0.0 15 42
r 0.21552 3 4 ack 40 ------- 1 3.0 0.0 14 39
+ 0.21552 4 0 ack 40 ------- 1 3.0 0.0 14 39
- 0.21552 4 0 ack 40 ------- 1 3.0 0.0 14 39
r 0.21552 4 0 ack 40 ------- 1 3.0 0.0 13 36
+ 0.21552 0 4 tcp 1040 ------- 1 0.0 3.0 27 43
+ 0.21552 0 4 tcp 1040 ------- 1 0.0 3.0 28 44
r 0.21568 0 4 tcp 1040 ------- 1 0.0 3.0 17 28
+ 0.21568 4 3 tcp 1040 ------- 1 0.0 3.0 17 28
- 0.21568 4 3 tcp 1040 ------- 1 0.0 3.0 17 28
- 0.21584 0 4 tcp 1040 ------- 1 0.0 3.0 19 31
r 0.21968 4 3 tcp 1040 ------- 1 0.0 3.0 16 26
+ 0.21968 3 4 ack 40 ------- 1 3.0 0.0 16 45
- 0.21968 3 4 ack 40 ------- 1 3.0 0.0 16 45
r 0.21968 3 4 ack 40 ------- 1 3.0 0.0 15 42
+ 0.21968 4 0 ack 40 ------- 1 3.0 0.0 15 42
- 0.21968 4 0 ack 40 ------- 1 3.0 0.0 15 42
r 0.21968 4 0 ack 40 ------- 1 3.0 0.0 14 39
+ 0.21968 0 4 tcp 1040 ------- 1 0.0 3.0 29 46
+ 0.21968 0 4 tcp 1040 ------- 1 0.0 3.0 30 47
r 0.21984 0 4 tcp 1040 ------- 1 0.0 3.0 18 29
+ 0.21984 4 3 tcp 1040 ------- 1 0.0 3.0 18 29
- 0.21984 4 3 tcp 1040 ------- 1 0.0 3.0 18 29
- 0.22 0 4 tcp 1040 ------- 1 0.0 3.0 20 32
r 0.22384 4 3 tcp 1040 ------- 1 0.0 3.0 17 28
+ 0.22384 3 4 ack 40 ------- 1 3.0 0.0 17 48
- 0.22384 3 4 ack 40 ------- 1 3.0 0.0 17 48
r 0.22384 3 4 ack 40 ------- 1 3.0 0.0 16 45
+ 0.22384 4 0 ack 40 ------- 1 3.0 0.0 16 45
- 0.22384 4 0 ack 40 ------- 1 3.0 0.0 16 45
r 0.22384 4 0 ack 40 ------- 1 3.0 0.0 15 42
+ 0.22384 0 4 tcp 1040 ------- 1 0.0 3.0 31 49
+ 0.22384 0 4 tcp 1040 ------- 1 0.0 3.0 32 50
r 0.224 0 4 tcp 1040 ------- 1 0.0 3.0 19 31
+ 0.224 4 3 tcp 1040 ------- 1 0.0 3.0 19 31
- 0.224 4 3 tcp 1040 ------- 1 0.0 3.0 19 31
- 0.22416 0 4 tcp 1040 ------- 1 0.0 3.0 21 34
r 0.228 4 3 tcp 1040 ------- 1 0.0 3.0 18 29
+ 0.228 3 4 ack 40 ------- 1 3.0 0.0 18 51
- 0.228 3 4 ack 40 ------- 1 3.0 0.0 18 51
r 0.228 3 4 ack 40 ------- 1 3.0 0.0 17 48
+ 0.228 4 0 ack 40 ------- 1 3.0 0.0 17 48
- 0.228 4 0 ack 40 ------- 1 3.0 0.0 17 48
r 0.228 4 0 ack 40 ------- 1 3.0 0.0 16 45
+ 0.228 0 4 tcp 1040 ------- 1 0.0 3.0 33 52
+ 0.228 0 4 tcp 1040 ------- 1 0.0 3.0 34 53
r 0.22816 0 4 tcp 1040 ------- 1 0.0 3.0 20 32
+ 0.22816 4 3 tcp 1040 ------- 1 0.0 3.0 20 32
- 0.22816 4 3 tcp 1040 ------- 1 0.0 3.0 20 32
- 0.22832 0 4 tcp 1040 ------- 1 0.0 3.0 22 35
r 0.23216 4 3 tcp 1040 ------- 1 0.0 3.0 19 31
+ 0.23216 3 4 ack 40 ------- 1 3.0 0.0 19 54
- 0.23216 3 4 ack 40 ------- 1 3.0 0.0 19 54
r 0.23216 3 4 ack 40 ------- 1 3.0 0.0 18 51
+ 0.23216 4 0 ack 40 ------- 1 3.0 0.0 18 51
- 0.23216 4 0 ack 40 ------- 1 3.0 0.0 18 51
r 0.23216 4 0 ack 40 ------- 1 3.0 0.0 17 48
+ 0.23216 0 4 tcp 1040 ------- 1 0.0 3.0 35 55
+ 0.23216 0 4 tcp 1040 ------- 1 0.0 3.0 36 56
r 0.23232 0 4 tcp 1040 ------- 1 0.0 3.0 21 34
+ 0.23232 4 3 tcp 1040 ------- 1 0.0 3.0 21 34
- 0.23232 4 3 tcp 1040 ------- 1 0.0 3.0 21 34
- 0.23248 0 4 tcp 1040 ------- 1 0.0 3.0 23 37
r 0.23632 4 3 tcp 1040 ------- 1 0.0 3.0 20 32
+ 0.23632 3 4 ack 40 ------- 1 3.0 0.0 20 57
- 0.23632 3 4 ack 40 ------- 1 3.0 0.0 20 57
r 0.23632 3 4 ack 40 ------- 1 3.0 0.0 19 54
+ 0.23632 4 0 ack 40 ------- 1 3.0 0.0 19 54
- 0.23632 4 0 ack 40 ------- 1 3.0 0.0 19 54
r 0.23632 4 0 ack 40 ------- 1 3.0 0.0 18 51
+ 0.23632 0 4 tcp 1040 ------- 1 0.0 3.0 37 58
+ 0.23632 0 4 tcp 1040 ------- 1 0.0 3.0 38 59
r 0.23648 0 4 tcp 1040 ------- 1 0.0 3.0 22 35
+ 0.23648 4 3 tcp 1040 ------- 1 0.0 3.0 22 35
- 0.23648 4 3 tcp 1040 ------- 1 0.0 3.0 22 35
- 0.23664 0 4 tcp 1040 ------- 1 0.0 3.0 24 38
r 0.24048 4 3 tcp 1040 ------- 1 0.0 3.0 21 34
+ 0.24048 3 4 ack 40 ------- 1 3.0 0.0 21 60
- 0.24048 3 4 ack 40 ------- 1 3.0 0.0 21 60
r 0.24048 3 4 ack 40 ------- 1 3.0 0.0 20 57
+ 0.24048 4 0 ack 40 ------- 1 3.0 0.0 20 57
- 0.24048 4 0 ack 40 ------- 1 3.0 0.0 20 57
r 0.24048 4 0 ack 40 ------- 1 3.0 0.0 19 54
+ 0.24048 0 4 tcp 1040 ------- 1 0.0 3.0 39 61
r 0.24064 0 4 tcp 1040 ------- 1 0.0 3.0 23 37
+ 0.24064 4 3 tcp 1040 ------- 1 0.0 3.0 23 37
- 0.24064 4 3 tcp 1040 ------- 1 0.0 3.0 23 37
- 0.2408 0 4 tcp 1040 ------- 1 0.0 3.0 25 40
r 0.24464 4 3 tcp 1040 ------- 1 0.0 3.0 22 35
+ 0.24464 3 4 ack 40 ------- 1 3.0 0.0 22 62
- 0.24464 3 4 ack 40 ------- 1 3.0 0.0 22 62
r 0.24464 3 4 ack 40 ------- 1 3.0 0.0 21 60
+ 0.24464 4 0 ack 40 ------- 1 3.0 0.0 21 60
- 0.24464 4 0 ack 40 ------- 1 3.0 0.0 21 60
r 0.24464 4 0 ack 40 ------- 1 3.0 0.0 20 57
+ 0.24464 0 4 tcp 1040 ------- 1 0.0 3.0 40 63
r 0.2448 0 4 tcp 1040 ------- 1 0.0 3.0 24 38
+ 0.2448 4 3 tcp 1040 ------- 1 0.0 3.0 24 38
- 0.2448 4 3 tcp 1040 ------- 1 0.0 3.0 24 38
- 0.24496 0 4 tcp 1040 ------- 1 0.0 3.0 26 41
r 0.2488 4 3 tcp 1040 ------- 1 0.0 3.0 23 37
+ 0.2488 3 4 ack 40 ------- 1 3.0 0.0 23 64
- 0.2488 3 4 ack 40 ------- 1 3.0 0.0 23 64
r 0.2488 3 4 ack 40 ------- 1 3.0 0.0 22 62
+ 0.2488 4 0 ack 40 ------- 1 3.0 0.0 22 62
- 0.2488 4 0 ack 40 ------- 1 3.0 0.0 22 62
r 0.2488 4 0 ack 40 ------- 1 3.0 0.0 21 60
+ 0.2488 0 4 tcp 1040 ------- 1 0.0 3.0 41 65
r 0.24896 0 4 tcp 1040 ------- 1 0.0 3.0 25 40
+ 0.24896 4 3 tcp 1040 ------- 1 0.0 3.0 25 40
- 0.24896 4 3 tcp 1040 ------- 1 0.0 3.0 25 40
- 0.24912 0 4 tcp 1040 ------- 1 0.0 3.0 27 43
r 0.25296 4 3 tcp 1040 ------- 1 0.0 3.0 24 38
+ 0.25296 3 4 ack 40 ------- 1 3.0 0.0 24 66
- 0.25296 3 4 ack 40 ------- 1 3.0 0.0 24 66
r 0.25296 3 4 ack 40 ------- 1 3.0 0.0 23 64
+ 0.25296 4 0 ack 40 ------- 1 3.0 0.0 23 64
- 0.25296 4 0 ack 40 ------- 1 3.0 0.0 23 64
r 0.25296 4 0 ack 40 ------- 1 3.0 0.0 22 62
+ 0.25296 0 4 tcp 1040 ------- 1 0.0 3.0 42 67
r 0.25312 0 4 tcp 1040 ------- 1 0.0 3.0 26 41
+ 0.25312 4 3 tcp 1040 ------- 1 0.0 3.0 26 41
- 0.25312 4 3 tcp 1040 ------- 1 0.0 3.0 26 41
- 0.25328 0 4 tcp 1040 ------- 1 0.0 3.0 28 44
r 0.25712 4 3 tcp 1040 ------- 1 0.0 3.0 25 40
+ 0.25712 3 4 ack 40 ------- 1 3.0 0.0 25 68
- 0.25712 3 4 ack 40 ------- 1 3.0 0.0 25 68
r 0.25712 3 4 ack 40 ------- 1 3.0 0.0 24 66
+ 0.25712 4 0 ack 40 ------- 1 3.0 0.0 24 66
- 0.25712 4 0 ack 40 ------- 1 3.0 0.0 24 66
r 0.25712 4 0 ack 40 ------- 1 3.0 0.0 23 64
+ 0.25712 0 4 tcp 1040 ------- 1 0.0 3.0 43 69
r 0.25728 0 4 tcp 1040 ------- 1 0.0 3.0 27 43
+ 0.25728 4 3 tcp 1040 ------- 1 0.0 3.0 27 43
- 0.25728 4 3 tcp 1040 ------- 1 0.0 3.0 27 43
- 0.25744 0 4 tcp 1040 ------- 1 0.0 3.0 29 46
r 0.26128 3 4 ack 40 ------- 1 3.0 0.0 25 68
+ 0.26128 4 0 ack 40 ------- 1 3.0 0.0 25 68
- 0.26128 4 0 ack 40 ------- 1 3.0 0.0 25 68
r 0.26128 4 3 tcp 1040 ------- 1 0.0 3.0 26 41
+ 0.26128 3 4 ack 40 ------- 1 3.0 0.0 26 70
- 0.26128 3 4 ack 40 ------- 1 3.0 0.0 26 70
r 0.26128 4 0 ack 40 ------- 1 3.0 0.0 24 66
+ 0.26128 0 4 tcp 1040 ------- 1 0.0 3.0 44 71
r 0.26144 0 4 tcp 1040 ------- 1 0.0 3.0 28 44
+ 0.26144 4 3 tcp 1040 ------- 1 0.0 3.0 28 44
- 0.26144 4 3 tcp 1040 ------- 1 0.0 3.0 28 44
- 0.2616 0 4 tcp 1040 ------- 1 0.0 3.0 30 47
r 0.26544 4 0 ack 40 ------- 1 3.0 0.0 25 68
+ 0.26544 0 4 tcp 1040 ------- 1 0.0 3.0 45 72
r 0.26544 4 3 tcp 1040 ------- 1 0.0 3.0 27 43
+ 0.26544 3 4 ack 40 ------- 1 3.0 0.0 27 73
- 0.26544 3 4 ack 40 ------- 1 3.0 0.0 27 73
r 0.26544 3 4 ack 40 ------- 1 3.0 0.0 26 70
+ 0.26544 4 0 ack 40 ------- 1 3.0 0.0 26 70
- 0.26544 4 0 ack 40 ------- 1 3.0 0.0 26 70
r 0.2656 0 4 tcp 1040 ------- 1 0.0 3.0 29 46
+ 0.2656 4 3 tcp 1040 ------- 1 0.0 3.0 29 46
- 0.2656 4 3 tcp 1040 ------- 1 0.0 3.0 29 46
- 0.26576 0 4 tcp 1040 ------- 1 0.0 3.0 31 49
r 0.2696 4 3 tcp 1040 ------- 1 0.0 3.0 28 44
+ 0.2696 3 4 ack 40 ------- 1 3.0 0.0 28 74
- 0.2696 3 4 ack 40 ------- 1 3.0 0.0 28 74
r 0.2696 3 4 ack 40 ------- 1 3.0 0.0 27 73
+ 0.2696 4 0 ack 40 ------- 1 3.0 0.0 27 73
- 0.2696 4 0 ack 40 ------- 1 3.0 0.0 27 73
r 0.2696 4 0 ack 40 ------- 1 3.0 0.0 26 70
+ 0.2696 0 4 tcp 1040 ------- 1 0.0 3.0 46 75
r 0.26976 0 4 tcp 1040 ------- 1 0.0 3.0 30 47
+ 0.26976 4 3 tcp 1040 ------- 1 0.0 3.0 30 47
- 0.26976 4 3 tcp 1040 ------- 1 0.0 3.0 30 47
- 0.26992 0 4 tcp 1040 ------- 1 0.0 3.0 32 50
r 0.27376 4 3 tcp 1040 ------- 1 0.0 3.0 29 46
+ 0.27376 3 4 ack 40 ------- 1 3.0 0.0 29 76
- 0.27376 3 4 ack 40 ------- 1 3.0 0.0 29 76
r 0.27376 3 4 ack 40 ------- 1 3.0 0.0 28 74
+ 0.27376 4 0 ack 40 ------- 1 3.0 0.0 28 74
- 0.27376 4 0 ack 40 ------- 1 3.0 0.0 28 74
r 0.27376 4 0 ack 40 ------- 1 3.0 0.0 27 73
+ 0.27376 0 4 tcp 1040 ------- 1 0.0 3.0 47 77
r 0.27392 0 4 tcp 1040 ------- 1 0.0 3.0 31 49
+ 0.27392 4 3 tcp 1040 ------- 1 0.0 3.0 31 49
- 0.27392 4 3 tcp 1040 ------- 1 0.0 3.0 31 49
- 0.27408 0 4 tcp 1040 ------- 1 0.0 3.0 33 52
r 0.27792 4 3 tcp 1040 ------- 1 0.0 3.0 30 47
+ 0.27792 3 4 ack 40 ------- 1 3.0 0.0 30 78
- 0.27792 3 4 ack 40 ------- 1 3.0 0.0 30 78
r 0.27792 3 4 ack 40 ------- 1 3.0 0.0 29 76
+ 0.27792 4 0 ack 40 ------- 1 3.0 0.0 29 76
- 0.27792 4 0 ack 40 ------- 1 3.0 0.0 29 76
r 0.27792 4 0 ack 40 ------- 1 3.0 0.0 28 74
+ 0.27792 0 4 tcp 1040 ------- 1 0.0 3.0 48 79
r 0.27808 0 4 tcp 1040 ------- 1 0.0 3.0 32 50
+ 0.27808 4 3 tcp 1040 ------- 1 0.0 3.0 32 50
- 0.27808 4 3 tcp 1040 ------- 1 0.0 3.0 32 50
- 0.27824 0 4 tcp 1040 ------- 1 0.0 3.0 34 53
r 0.28208 4 3 tcp 1040 ------- 1 0.0 3.0 31 49
+ 0.28208 3 4 ack 40 ------- 1 3.0 0.0 31 80
- 0.28208 3 4 ack 40 ------- 1 3.0 0.0 31 80
r 0.28208 3 4 ack 40 ------- 1 3.0 0.0 30 78
+ 0.28208 4 0 ack 40 ------- 1 3.0 0.0 30 78
- 0.28208 4 0 ack 40 ------- 1 3.0 0.0 30 78
r 0.28208 4 0 ack 40 ------- 1 3.0 0.0 29 76
+ 0.28208 0 4 tcp 1040 ------- 1 0.0 3.0 49 81
r 0.28224 0 4 tcp 1040 ------- 1 0.0 3.0 33 52
+ 0.28224 4 3 tcp 1040 ------- 1 0.0 3.0 33 52
- 0.28224 4 3 tcp 1040 ------- 1 0.0 3.0 33 52
- 0.2824 0 4 tcp 1040 ------- 1 0.0 3.0 35 55
r 0.28624 4 3 tcp 1040 ------- 1 0.0 3.0 32 50
+ 0.28624 3 4 ack 40 ------- 1 3.0 0.0 32 82
- 0.28624 3 4 ack 40 ------- 1 3.0 0.0 32 82
r 0.28624 3 4 ack 40 ------- 1 3.0 0.0 31 80
+ 0.28624 4 0 ack 40 ------- 1 3.0 0.0 31 80
- 0.28624 4 0 ack 40 ------- 1 3.0 0.0 31 80
r 0.28624 4 0 ack 40 ------- 1 3.0 0.0 30 78
+ 0.28624 0 4 tcp 1040 ------- 1 0.0 3.0 50 83
r 0.2864 0 4 tcp 1040 ------- 1 0.0 3.0 34 53
+ 0.2864 4 3 tcp 1040 ------- 1 0.0 3.0 34 53
- 0.2864 4 3 tcp 1040 ------- 1 0.0 3.0 34 53
- 0.28656 0 4 tcp 1040 ------- 1 0.0 3.0 36 56
r 0.2904 4 3 tcp 1040 ------- 1 0.0 3.0 33 52
+ 0.2904 3 4 ack 40 ------- 1 3.0 0.0 33 84
- 0.2904 3 4 ack 40 ------- 1 3.0 0.0 33 84
r 0.2904 3 4 ack 40 ------- 1 3.0 0.0 32 82
+ 0.2904 4 0 ack 40 ------- 1 3.0 0.0 32 82
- 0.2904 4 0 ack 40 ------- 1 3.0 0.0 32 82
r 0.2904 4 0 ack 40 ------- 1 3.0 0.0 31 80
+ 0.2904 0 4 tcp 1040 ------- 1 0.0 3.0 51 85
r 0.29056 0 4 tcp 1040 ------- 1 0.0 3.0 35 55
+ 0.29056 4 3 tcp 1040 ------- 1 0.0 3.0 35 55
- 0.29056 4 3 tcp 1040 ------- 1 0.0 3.0 35 55
- 0.29072 0 4 tcp 1040 ------- 1 0.0 3.0 37 58
r 0.29456 4 3 tcp 1040 ------- 1 0.0 3.0 34 53
+ 0.29456 3 4 ack 40 ------- 1 3.0 0.0 34 86
- 0.29456 3 4 ack 40 ------- 1 3.0 0.0 34 86
r 0.29456 3 4 ack 40 ------- 1 3.0 0.0 33 84
+ 0.29456 4 0 ack 40 ------- 1 3.0 0.0 33 84
- 0.29456 4 0 ack 40 ------- 1 3.0 0.0 33 84
r 0.29456 4 0 ack 40 ------- 1 3.0 0.0 32 82
+ 0.29456 0 4 tcp 1040 ------- 1 0.0 3.0 52 87
r 0.29472 0 4 tcp 1040 ------- 1 0.0 3.0 36 56
+ 0.29472 4 3 tcp 1040 ------- 1 0.0 3.0 36 56
- 0.29472 4 3 tcp 1040 ------- 1 0.0 3.0 36 56
- 0.29488 0 4 tcp 1040 ------- 1 0.0 3.0 38 59
r 0.29872 4 3 tcp 1040 ------- 1 0.0 3.0 35 55
+ 0.29872 3 4 ack 40 ------- 1 3.0 0.0 35 88
- 0.29872 3 4 ack 40 ------- 1 3.0 0.0 35 88
r 0.29872 3 4 ack 40 ------- 1 3.0 0.0 34 86
+ 0.29872 4 0 ack 40 ------- 1 3.0 0.0 34 86
- 0.29872 4 0 ack 40 ------- 1 3.0 0.0 34 86
r 0.29872 4 0 ack 40 ------- 1 3.0 0.0 33 84
+ 0.29872 0 4 tcp 1040 ------- 1 0.0 3.0 53 89
r 0.29888 0 4 tcp 1040 ------- 1 0.0 3.0 37 58
+ 0.29888 4 3 tcp 1040 ------- 1 0.0 3.0 37 58
- 0.29888 4 3 tcp 1040 ------- 1 0.0 3.0 37 58
- 0.29904 0 4 tcp 1040 ------- 1 0.0 3.0 39 61
r 0.30288 4 3 tcp 1040 ------- 1 0.0 3.0 36 56
+ 0.30288 3 4 ack 40 ------- 1 3.0 0.0 36 90
- 0.30288 3 4 ack 40 ------- 1 3.0 0.0 36 90
r 0.30288 3 4 ack 40 ------- 1 3.0 0.0 35 88
+ 0.30288 4 0 ack 40 ------- 1 3.0 0.0 35 88
- 0.30288 4 0 ack 40 ------- 1 3.0 0.0 35 88
r 0.30288 4 0 ack 40 ------- 1 3.0 0.0 34 86
+ 0.30288 0 4 tcp 1040 ------- 1 0.0 3.0 54 91
r 0.30304 0 4 tcp 1040 ------- 1 0.0 3.0 38 59
+ 0.30304 4 3 tcp 1040 ------- 1 0.0 3.0 38 59
- 0.30304 4 3 tcp 1040 ------- 1 0.0 3.0 38 59
- 0.3032 0 4 tcp 1040 ------- 1 0.0 3.0 40 63
r 0.30704 4 3 tcp 1040 ------- 1 0.0 3.0 37 58
+ 0.30704 3 4 ack 40 ------- 1 3.0 0.0 37 92
- 0.30704 3 4 ack 40 ------- 1 3.0 0.0 37 92
r 0.30704 3 4 ack 40 ------- 1 3.0 0.0 36 90
+ 0.30704 4 0 ack 40 ------- 1 3.0 0.0 36 90
- 0.30704 4 0 ack 40 ------- 1 3.0 0.0 36 90
r 0.30704 4 0 ack 40 ------- 1 3.0 0.0 35 88
+ 0.30704 0 4 tcp 1040 ------- 1 0.0 3.0 55 93
r 0.3072 0 4 tcp 1040 ------- 1 0.0 3.0 39 61
+ 0.3072 4 3 tcp 1040 ------- 1 0.0 3.0 39 61
- 0.3072 4 3 tcp 1040 ------- 1 0.0 3.0 39 61
- 0.30736 0 4 tcp 1040 ------- 1 0.0 3.0 41 65
r 0.3112 4 3 tcp 1040 ------- 1 0.0 3.0 38 59
+ 0.3112 3 4 ack 40 ------- 1 3.0 0.0 38 94
- 0.3112 3 4 ack 40 ------- 1 3.0 0.0 38 94
r 0.3112 3 4 ack 40 ------- 1 3.0 0.0 37 92
+ 0.3112 4 0 ack 40 ------- 1 3.0 0.0 37 92
- 0.3112 4 0 ack 40 ------- 1 3.0 0.0 37 92
r 0.3112 4 0 ack 40 ------- 1 3.0 0.0 36 90
+ 0.3112 0 4 tcp 1040 ------- 1 0.0 3.0 56 95
r 0.31136 0 4 tcp 1040 ------- 1 0.0 3.0 40 63
+ 0.31136 4 3 tcp 1040 ------- 1 0.0 3.0 40 63
- 0.31136 4 3 tcp 1040 ------- 1 0.0 3.0 40 63
- 0.31152 0 4 tcp 1040 ------- 1 0.0 3.0 42 67
r 0.31536 4 3 tcp 1040 ------- 1 0.0 3.0 39 61
+ 0.31536 3 4 ack 40 ------- 1 3.0 0.0 39 96
- 0.31536 3 4 ack 40 ------- 1 3.0 0.0 39 96
r 0.31536 3 4 ack 40 ------- 1 3.0 0.0 38 94
+ 0.31536 4 0 ack 40 ------- 1 3.0 0.0 38 94
- 0.31536 4 0 ack 40 ------- 1 3.0 0.0 38 94
r 0.31536 4 0 ack 40 ------- 1 3.0 0.0 37 92
+ 0.31536 0 4 tcp 1040 ------- 1 0.0 3.0 57 97
r 0.31552 0 4 tcp 1040 ------- 1 0.0 3.0 41 65
+ 0.31552 4 3 tcp 1040 ------- 1 0.0 3.0 41 65
- 0.31552 4 3 tcp 1040 ------- 1 0.0 3.0 41 65
- 0.31568 0 4 tcp 1040 ------- 1 0.0 3.0 43 69
r 0.31952 4 3 tcp 1040 ------- 1 0.0 3.0 40 63
+ 0.31952 3 4 ack 40 ------- 1 3.0 0.0 40 98
- 0.31952 3 4 ack 40 ------- 1 3.0 0.0 40 98
r 0.31952 3 4 ack 40 ------- 1 3.0 0.0 39 96
+ 0.31952 4 0 ack 40 ------- 1 3.0 0.0 39 96
- 0.31952 4 0 ack 40 ------- 1 3.0 0.0 39 96
r 0.31952 4 0 ack 40 ------- 1 3.0 0.0 38 94
+ 0.31952 0 4 tcp 1040 ------- 1 0.0 3.0 58 99
r 0.31968 0 4 tcp 1040 ------- 1 0.0 3.0 42 67
+ 0.31968 4 3 tcp 1040 ------- 1 0.0 3.0 42 67
- 0.31968 4 3 tcp 1040 ------- 1 0.0 3.0 42 67
- 0.31984 0 4 tcp 1040 ------- 1 0.0 3.0 44 71
r 0.32368 4 3 tcp 1040 ------- 1 0.0 3.0 41 65
+ 0.32368 3 4 ack 40 ------- 1 3.0 0.0 41 100
- 0.32368 3 4 ack 40 ------- 1 3.0 0.0 41 100
r 0.32368 3 4 ack 40 ------- 1 3.0 0.0 40 98
+ 0.32368 4 0 ack 40 ------- 1 3.0 0.0 40 98
- 0.32368 4 0 ack 40 ------- 1 3.0 0.0 40 98
r 0.32368 4 0 ack 40 ------- 1 3.0 0.0 39 96
+ 0.32368 0 4 tcp 1040 ------- 1 0.0 3.0 59 101
r 0.32384 0 4 tcp 1040 ------- 1 0.0 3.0 43 69
+ 0.32384 4 3 tcp 1040 ------- 1 0.0 3.0 43 69
- 0.32384 4 3 tcp 1040 ------- 1 0.0 3.0 43 69
- 0.324 0 4 tcp 1040 ------- 1 0.0 3.0 45 72
r 0.32784 4 3 tcp 1040 ------- 1 0.0 3.0 42 67
+ 0.32784 3 4 ack 40 ------- 1 3.0 0.0 42 102
- 0.32784 3 4 ack 40 ------- 1 3.0 0.0 42 102
r 0.32784 3 4 ack 40 ------- 1 3.0 0.0 41 100
+ 0.32784 4 0 ack 40 ------- 1 3.0 0.0 41 100
- 0.32784 4 0 ack 40 ------- 1 3.0 0.0 41 100
r 0.32784 4 0 ack 40 ------- 1 3.0 0.0 40 98
+ 0.32784 0 4 tcp 1040 ------- 1 0.0 3.0 60 103
r 0.328 0 4 tcp 1040 ------- 1 0.0 3.0 44 71
+ 0.328 4 3 tcp 1040 ------- 1 0.0 3.0 44 71
- 0.328 4 3 tcp 1040 ------- 1 0.0 3.0 44 71
- 0.32816 0 4 tcp 1040 ------- 1 0.0 3.0 46 75
r 0.332 4 3 tcp 1040 ------- 1 0.0 3.0 43 69
+ 0.332 3 4 ack 40 ------- 1 3.0 0.0 43 104
- 0.332 3 4 ack 40 ------- 1 3.0 0.0 43 104
r 0.332 3 4 ack 40 ------- 1 3.0 0.0 42 102
+ 0.332 4 0 ack 40 ------- 1 3.0 0.0 42 102
- 0.332 4 0 ack 40 ------- 1 3.0 0.0 42 102
r 0.332 4 0 ack 40 ------- 1 3.0 0.0 41 100
+ 0.332 0 4 tcp 1040 ------- 1 0.0 3.0 61 105
r 0.33216 0 4 tcp 1040 ------- 1 0.0 3.0 45 72
+ 0.33216 4 3 tcp 1040 ------- 1 0.0 3.0 45 72
- 0.33216 4 3 tcp 1040 ------- 1 0.0 3.0 45 72
- 0.33232 0 4 tcp 1040 ------- 1 0.0 3.0 47 77
r 0.33616 4 3 tcp 1040 ------- 1 0.0 3.0 44 71
+ 0.33616 3 4 ack 40 ------- 1 3.0 0.0 44 106
- 0.33616 3 4 ack 40 ------- 1 3.0 0.0 44 106
r 0.33616 3 4 ack 40 ------- 1 3.0 0.0 43 104
+ 0.33616 4 0 ack 40 ------- 1 3.0 0.0 43 104
- 0.33616 4 0 ack 40 ------- 1 3.0 0.0 43 104
r 0.33616 4 0 ack 40 ------- 1 3.0 0.0 42 102
+ 0.33616 0 4 tcp 1040 ------- 1 0.0 3.0 62 107
r 0.33632 0 4 tcp 1040 ------- 1 0.0 3.0 46 75
+ 0.33632 4 3 tcp 1040 ------- 1 0.0 3.0 46 75
- 0.33632 4 3 tcp 1040 ------- 1 0.0 3.0 46 75
- 0.33648 0 4 tcp 1040 ------- 1 0.0 3.0 48 79
r 0.34032 4 3 tcp 1040 ------- 1 0.0 3.0 45 72
+ 0.34032 3 4 ack 40 ------- 1 3.0 0.0 45 108
- 0.34032 3 4 ack 40 ------- 1 3.0 0.0 45 108
r 0.34032 3 4 ack 40 ------- 1 3.0 0.0 44 106
+ 0.34032 4 0 ack 40 ------- 1 3.0 0.0 44 106
- 0.34032 4 0 ack 40 ------- 1 3.0 0.0 44 106
r 0.34032 4 0 ack 40 ------- 1 3.0 0.0 43 104
+ 0.34032 0 4 tcp 1040 ------- 1 0.0 3.0 63 109
r 0.34048 0 4 tcp 1040 ------- 1 0.0 3.0 47 77
+ 0.34048 4 3 tcp 1040 ------- 1 0.0 3.0 47 77
- 0.34048 4 3 tcp 1040 ------- 1 0.0 3.0 47 77
- 0.34064 0 4 tcp 1040 ------- 1 0.0 3.0 49 81
r 0.34448 4 3 tcp 1040 ------- 1 0.0 3.0 46 75
+ 0.34448 3 4 ack 40 ------- 1 3.0 0.0 46 110
- 0.34448 3 4 ack 40 ------- 1 3.0 0.0 46 110
r 0.34448 3 4 ack 40 ------- 1 3.0 0.0 45 108
+ 0.34448 4 0 ack 40 ------- 1 3.0 0.0 45 108
- 0.34448 4 0 ack 40 ------- 1 3.0 0.0 45 108
r 0.34448 4 0 ack 40 ------- 1 3.0 0.0 44 106
+ 0.34448 0 4 tcp 1040 ------- 1 0.0 3.0 64 111
r 0.34464 0 4 tcp 1040 ------- 1 0.0 3.0 48 79
+ 0.34464 4 3 tcp 1040 ------- 1 0.0 3.0 48 79
- 0.34464 4 3 tcp 1040 ------- 1 0.0 3.0 48 79
- 0.3448 0 4 tcp 1040 ------- 1 0.0 3.0 50 83
r 0.34864 4 3 tcp 1040 ------- 1 0.0 3.0 47 77
+ 0.34864 3 4 ack 40 ------- 1 3.0 0.0 47 112
- 0.34864 3 4 ack 40 ------- 1 3.0 0.0 47 112
r 0.34864 3 4 ack 40 ------- 1 3.0 0.0 46 110
+ 0.34864 4 0 ack 40 ------- 1 3.0 0.0 46 110
- 0.34864 4 0 ack 40 ------- 1 3.0 0.0 46 110
r 0.34864 4 0 ack 40 ------- 1 3.0 0.0 45 108
+ 0.34864 0 4 tcp 1040 ------- 1 0.0 3.0 65 113
r 0.3488 0 4 tcp 1040 ------- 1 0.0 3.0 49 81
+ 0.3488 4 3 tcp 1040 ------- 1 0.0 3.0 49 81
- 0.3488 4 3 tcp 1040 ------- 1 0.0 3.0 49 81
- 0.34896 0 4 tcp 1040 ------- 1 0.0 3.0 51 85
r 0.3528 4 3 tcp 1040 ------- 1 0.0 3.0 48 79
+ 0.3528 3 4 ack 40 ------- 1 3.0 0.0 48 114
- 0.3528 3 4 ack 40 ------- 1 3.0 0.0 48 114
r 0.3528 3 4 ack 40 ------- 1 3.0 0.0 47 112
+ 0.3528 4 0 ack 40 ------- 1 3.0 0.0 47 112
- 0.3528 4 0 ack 40 ------- 1 3.0 0.0 47 112
r 0.3528 4 0 ack 40 ------- 1 3.0 0.0 46 110
+ 0.3528 0 4 tcp 1040 ------- 1 0.0 3.0 66 115
r 0.35296 0 4 tcp 1040 ------- 1 0.0 3.0 50 83
+ 0.35296 4 3 tcp 1040 ------- 1 0.0 3.0 50 83
- 0.35296 4 3 tcp 1040 ------- 1 0.0 3.0 50 83
- 0.35312 0 4 tcp 1040 ------- 1 0.0 3.0 52 87
r 0.35696 4 3 tcp 1040 ------- 1 0.0 3.0 49 81
+ 0.35696 3 4 ack 40 ------- 1 3.0 0.0 49 116
- 0.35696 3 4 ack 40 ------- 1 3.0 0.0 49 116
r 0.35696 3 4 ack 40 ------- 1 3.0 0.0 48 114
+ 0.35696 4 0 ack 40 ------- 1 3.0 0.0 48 114
- 0.35696 4 0 ack 40 ------- 1 3.0 0.0 48 114
r 0.35696 4 0 ack 40 ------- 1 3.0 0.0 47 112
+ 0.35696 0 4 tcp 1040 ------- 1 0.0 3.0 67 117
r 0.35712 0 4 tcp 1040 ------- 1 0.0 3.0 51 85
+ 0.35712 4 3 tcp 1040 ------- 1 0.0 3.0 51 85
- 0.35712 4 3 tcp 1040 ------- 1 0.0 3.0 51 85
- 0.35728 0 4 tcp 1040 ------- 1 0.0 3.0 53 89
r 0.36112 4 3 tcp 1040 ------- 1 0.0 3.0 50 83
+ 0.36112 3 4 ack 40 ------- 1 3.0 0.0 50 118
- 0.36112 3 4 ack 40 ------- 1 3.0 0.0 50 118
r 0.36112 3 4 ack 40 ------- 1 3.0 0.0 49 116
+ 0.36112 4 0 ack 40 ------- 1 3.0 0.0 49 116
- 0.36112 4 0 ack 40 ------- 1 3.0 0.0 49 116
r 0.36112 4 0 ack 40 ------- 1 3.0 0.0 48 114
+ 0.36112 0 4 tcp 1040 ------- 1 0.0 3.0 68 119
r 0.36128 0 4 tcp 1040 ------- 1 0.0 3.0 52 87
+ 0.36128 4 3 tcp 1040 ------- 1 0.0 3.0 52 87
- 0.36128 4 3 tcp 1040 ------- 1 0.0 3.0 52 87
- 0.36144 0 4 tcp 1040 ------- 1 0.0 3.0 54 91
r 0.36528 4 3 tcp 1040 ------- 1 0.0 3.0 51 85
+ 0.36528 3 4 ack 40 ------- 1 3.0 0.0 51 120
- 0.36528 3 4 ack 40 ------- 1 3.0 0.0 51 120
r 0.36528 3 4 ack 40 ------- 1 3.0 0.0 50 118
+ 0.36528 4 0 ack 40 ------- 1 3.0 0.0 50 118
- 0.36528 4 0 ack 40 ------- 1 3.0 0.0 50 118
r 0.36528 4 0 ack 40 ------- 1 3.0 0.0 49 116
+ 0.36528 0 4 tcp 1040 ------- 1 0.0 3.0 69 121
r 0.36544 0 4 tcp 1040 ------- 1 0.0 3.0 53 89
+ 0.36544 4 3 tcp 1040 ------- 1 0.0 3.0 53 89
- 0.36544 4 3 tcp 1040 ------- 1 0.0 3.0 53 89
- 0.3656 0 4 tcp 1040 ------- 1 0.0 3.0 55 93
r 0.36944 4 3 tcp 1040 ------- 1 0.0 3.0 52 87
+ 0.36944 3 4 ack 40 ------- 1 3.0 0.0 52 122
- 0.36944 3 4 ack 40 ------- 1 3.0 0.0 52 122
r 0.36944 3 4 ack 40 ------- 1 3.0 0.0 51 120
+ 0.36944 4 0 ack 40 ------- 1 3.0 0.0 51 120
- 0.36944 4 0 ack 40 ------- 1 3.0 0.0 51 120
r 0.36944 4 0 ack 40 ------- 1 3.0 0.0 50 118
+ 0.36944 0 4 tcp 1040 ------- 1 0.0 3.0 70 123
r 0.3696 0 4 tcp 1040 ------- 1 0.0 3.0 54 91
+ 0.3696 4 3 tcp 1040 ------- 1 0.0 3.0 54 91