+ 0.1 0 4 tcp 40 ------- 1 0.0 4.0 0 0
- 0.1 0 4 tcp 40 ------- 1 0.0 4.0 0 0
r 0.10416 0 4 tcp 40 ------- 1 0.0 4.0 0 0
+ 0.10416 4 0 ack 40 ------- 1 4.0 0.0 0 1
- 0.10416 4 0 ack 40 ------- 1 4.0 0.0 0 1
r 0.10832 4 0 ack 40 ------- 1 4.0 0.0 0 1
+ 0.10832 0 4 tcp 1040 ------- 1 0.0 4.0 1 2
- 0.10832 0 4 tcp 1040 ------- 1 0.0 4.0 1 2
+ 0.10832 0 4 tcp 1040 ------- 1 0.0 4.0 2 3
- 0.11248 0 4 tcp 1040 ------- 1 0.0 4.0 2 3
r 0.11648 0 4 tcp 1040 ------- 1 0.0 4.0 1 2
+ 0.11648 4 0 ack 40 ------- 1 4.0 0.0 1 4
- 0.11648 4 0 ack 40 ------- 1 4.0 0.0 1 4
r 0.12064 0 4 tcp 1040 ------- 1 0.0 4.0 2 3
+ 0.12064 4 0 ack 40 ------- 1 4.0 0.0 2 5
- 0.12064 4 0 ack 40 ------- 1 4.0 0.0 2 5
r 0.12064 4 0 ack 40 ------- 1 4.0 0.0 1 4
+ 0.12064 0 4 tcp 1040 ------- 1 0.0 4.0 3 6
- 0.12064 0 4 tcp 1040 ------- 1 0.0 4.0 3 6
+ 0.12064 0 4 tcp 1040 ------- 1 0.0 4.0 4 7
r 0.1248 4 0 ack 40 ------- 1 4.0 0.0 2 5
+ 0.1248 0 4 tcp 1040 ------- 1 0.0 4.0 5 8
+ 0.1248 0 4 tcp 1040 ------- 1 0.0 4.0 6 9
- 0.1248 0 4 tcp 1040 ------- 1 0.0 4.0 4 7
r 0.1288 0 4 tcp 1040 ------- 1 0.0 4.0 3 6
+ 0.1288 4 0 ack 40 ------- 1 4.0 0.0 3 10
- 0.1288 4 0 ack 40 ------- 1 4.0 0.0 3 10
- 0.12896 0 4 tcp 1040 ------- 1 0.0 4.0 5 8
r 0.13296 0 4 tcp 1040 ------- 1 0.0 4.0 4 7
+ 0.13296 4 0 ack 40 ------- 1 4.0 0.0 4 11
- 0.13296 4 0 ack 40 ------- 1 4.0 0.0 4 11
r 0.13296 4 0 ack 40 ------- 1 4.0 0.0 3 10
+ 0.13296 0 4 tcp 1040 ------- 1 0.0 4.0 7 12
+ 0.13296 0 4 tcp 1040 ------- 1 0.0 4.0 8 13
- 0.13312 0 4 tcp 1040 ------- 1 0.0 4.0 6 9
r 0.13712 0 4 tcp 1040 ------- 1 0.0 4.0 5 8
+ 0.13712 4 0 ack 40 ------- 1 4.0 0.0 5 14
- 0.13712 4 0 ack 40 ------- 1 4.0 0.0 5 14
r 0.13712 4 0 ack 40 ------- 1 4.0 0.0 4 11
+ 0.13712 0 4 tcp 1040 ------- 1 0.0 4.0 9 15
+ 0.13712 0 4 tcp 1040 ------- 1 0.0 4.0 10 16
- 0.13728 0 4 tcp 1040 ------- 1 0.0 4.0 7 12
r 0.14128 0 4 tcp 1040 ------- 1 0.0 4.0 6 9
+ 0.14128 4 0 ack 40 ------- 1 4.0 0.0 6 17
- 0.14128 4 0 ack 40 ------- 1 4.0 0.0 6 17
r 0.14128 4 0 ack 40 ------- 1 4.0 0.0 5 14
+ 0.14128 0 4 tcp 1040 ------- 1 0.0 4.0 11 18
+ 0.14128 0 4 tcp 1040 ------- 1 0.0 4.0 12 19
- 0.14144 0 4 tcp 1040 ------- 1 0.0 4.0 8 13
r 0.14544 0 4 tcp 1040 ------- 1 0.0 4.0 7 12
+ 0.14544 4 0 ack 40 ------- 1 4.0 0.0 7 20
- 0.14544 4 0 ack 40 ------- 1 4.0 0.0 7 20
r 0.14544 4 0 ack 40 ------- 1 4.0 0.0 6 17
+ 0.14544 0 4 tcp 1040 ------- 1 0.0 4.0 13 21
+ 0.14544 0 4 tcp 1040 ------- 1 0.0 4.0 14 22
- 0.1456 0 4 tcp 1040 ------- 1 0.0 4.0 9 15
r 0.1496 0 4 tcp 1040 ------- 1 0.0 4.0 8 13
+ 0.1496 4 0 ack 40 ------- 1 4.0 0.0 8 23
- 0.1496 4 0 ack 40 ------- 1 4.0 0.0 8 23
r 0.1496 4 0 ack 40 ------- 1 4.0 0.0 7 20
+ 0.1496 0 4 tcp 1040 ------- 1 0.0 4.0 15 24
+ 0.1496 0 4 tcp 1040 ------- 1 0.0 4.0 16 25
- 0.14976 0 4 tcp 1040 ------- 1 0.0 4.0 10 16
r 0.15376 0 4 tcp 1040 ------- 1 0.0 4.0 9 15
+ 0.15376 4 0 ack 40 ------- 1 4.0 0.0 9 26
- 0.15376 4 0 ack 40 ------- 1 4.0 0.0 9 26
r 0.15376 4 0 ack 40 ------- 1 4.0 0.0 8 23
+ 0.15376 0 4 tcp 1040 ------- 1 0.0 4.0 17 27
+ 0.15376 0 4 tcp 1040 ------- 1 0.0 4.0 18 28
- 0.15392 0 4 tcp 1040 ------- 1 0.0 4.0 11 18
r 0.15792 0 4 tcp 1040 ------- 1 0.0 4.0 10 16
+ 0.15792 4 0 ack 40 ------- 1 4.0 0.0 10 29
- 0.15792 4 0 ack 40 ------- 1 4.0 0.0 10 29
r 0.15792 4 0 ack 40 ------- 1 4.0 0.0 9 26
+ 0.15792 0 4 tcp 1040 ------- 1 0.0 4.0 19 30
+ 0.15792 0 4 tcp 1040 ------- 1 0.0 4.0 20 31
- 0.15808 0 4 tcp 1040 ------- 1 0.0 4.0 12 19
r 0.16208 0 4 tcp 1040 ------- 1 0.0 4.0 11 18
+ 0.16208 4 0 ack 40 ------- 1 4.0 0.0 11 32
- 0.16208 4 0 ack 40 ------- 1 4.0 0.0 11 32
r 0.16208 4 0 ack 40 ------- 1 4.0 0.0 10 29
+ 0.16208 0 4 tcp 1040 ------- 1 0.0 4.0 21 33
+ 0.16208 0 4 tcp 1040 ------- 1 0.0 4.0 22 34
- 0.16224 0 4 tcp 1040 ------- 1 0.0 4.0 13 21
r 0.16624 0 4 tcp 1040 ------- 1 0.0 4.0 12 19
+ 0.16624 4 0 ack 40 ------- 1 4.0 0.0 12 35
- 0.16624 4 0 ack 40 ------- 1 4.0 0.0 12 35
r 0.16624 4 0 ack 40 ------- 1 4.0 0.0 11 32
+ 0.16624 0 4 tcp 1040 ------- 1 0.0 4.0 23 36
+ 0.16624 0 4 tcp 1040 ------- 1 0.0 4.0 24 37
- 0.1664 0 4 tcp 1040 ------- 1 0.0 4.0 14 22
r 0.1704 0 4 tcp 1040 ------- 1 0.0 4.0 13 21
+ 0.1704 4 0 ack 40 ------- 1 4.0 0.0 13 38
- 0.1704 4 0 ack 40 ------- 1 4.0 0.0 13 38
r 0.1704 4 0 ack 40 ------- 1 4.0 0.0 12 35
+ 0.1704 0 4 tcp 1040 ------- 1 0.0 4.0 25 39
+ 0.1704 0 4 tcp 1040 ------- 1 0.0 4.0 26 40
- 0.17056 0 4 tcp 1040 ------- 1 0.0 4.0 15 24
r 0.17456 0 4 tcp 1040 ------- 1 0.0 4.0 14 22
+ 0.17456 4 0 ack 40 ------- 1 4.0 0.0 14 41
- 0.17456 4 0 ack 40 ------- 1 4.0 0.0 14 41
r 0.17456 4 0 ack 40 ------- 1 4.0 0.0 13 38
+ 0.17456 0 4 tcp 1040 ------- 1 0.0 4.0 27 42
+ 0.17456 0 4 tcp 1040 ------- 1 0.0 4.0 28 43
- 0.17472 0 4 tcp 1040 ------- 1 0.0 4.0 16 25
r 0.17872 0 4 tcp 1040 ------- 1 0.0 4.0 15 24
+ 0.17872 4 0 ack 40 ------- 1 4.0 0.0 15 44
- 0.17872 4 0 ack 40 ------- 1 4.0 0.0 15 44
r 0.17872 4 0 ack 40 ------- 1 4.0 0.0 14 41
+ 0.17872 0 4 tcp 1040 ------- 1 0.0 4.0 29 45
+ 0.17872 0 4 tcp 1040 ------- 1 0.0 4.0 30 46
- 0.17888 0 4 tcp 1040 ------- 1 0.0 4.0 17 27
r 0.18288 0 4 tcp 1040 ------- 1 0.0 4.0 16 25
+ 0.18288 4 0 ack 40 ------- 1 4.0 0.0 16 47
- 0.18288 4 0 ack 40 ------- 1 4.0 0.0 16 47
r 0.18288 4 0 ack 40 ------- 1 4.0 0.0 15 44
+ 0.18288 0 4 tcp 1040 ------- 1 0.0 4.0 31 48
+ 0.18288 0 4 tcp 1040 ------- 1 0.0 4.0 32 49
- 0.18304 0 4 tcp 1040 ------- 1 0.0 4.0 18 28
r 0.18704 0 4 tcp 1040 ------- 1 0.0 4.0 17 27
+ 0.18704 4 0 ack 40 ------- 1 4.0 0.0 17 50
- 0.18704 4 0 ack 40 ------- 1 4.0 0.0 17 50
r 0.18704 4 0 ack 40 ------- 1 4.0 0.0 16 47
+ 0.18704 0 4 tcp 1040 ------- 1 0.0 4.0 33 51
+ 0.18704 0 4 tcp 1040 ------- 1 0.0 4.0 34 52
- 0.1872 0 4 tcp 1040 ------- 1 0.0 4.0 19 30
r 0.1912 0 4 tcp 1040 ------- 1 0.0 4.0 18 28
+ 0.1912 4 0 ack 40 ------- 1 4.0 0.0 18 53
- 0.1912 4 0 ack 40 ------- 1 4.0 0.0 18 53
r 0.1912 4 0 ack 40 ------- 1 4.0 0.0 17 50
+ 0.1912 0 4 tcp 1040 ------- 1 0.0 4.0 35 54
+ 0.1912 0 4 tcp 1040 ------- 1 0.0 4.0 36 55
- 0.19136 0 4 tcp 1040 ------- 1 0.0 4.0 20 31
r 0.19536 0 4 tcp 1040 ------- 1 0.0 4.0 19 30
+ 0.19536 4 0 ack 40 ------- 1 4.0 0.0 19 56
- 0.19536 4 0 ack 40 ------- 1 4.0 0.0 19 56
r 0.19536 4 0 ack 40 ------- 1 4.0 0.0 18 53
+ 0.19536 0 4 tcp 1040 ------- 1 0.0 4.0 37 57
+ 0.19536 0 4 tcp 1040 ------- 1 0.0 4.0 38 58
- 0.19552 0 4 tcp 1040 ------- 1 0.0 4.0 21 33
r 0.19952 0 4 tcp 1040 ------- 1 0.0 4.0 20 31
+ 0.19952 4 0 ack 40 ------- 1 4.0 0.0 20 59
- 0.19952 4 0 ack 40 ------- 1 4.0 0.0 20 59
r 0.19952 4 0 ack 40 ------- 1 4.0 0.0 19 56
+ 0.19952 0 4 tcp 1040 ------- 1 0.0 4.0 39 60
- 0.19968 0 4 tcp 1040 ------- 1 0.0 4.0 22 34
+ 0.2 1 2 tcp 40 ------- 2 1.0 2.0 0 61
- 0.2 1 2 tcp 40 ------- 2 1.0 2.0 0 61
r 0.20368 0 4 tcp 1040 ------- 1 0.0 4.0 21 33
+ 0.20368 4 0 ack 40 ------- 1 4.0 0.0 21 62
- 0.20368 4 0 ack 40 ------- 1 4.0 0.0 21 62
r 0.20368 4 0 ack 40 ------- 1 4.0 0.0 20 59
+ 0.20368 0 4 tcp 1040 ------- 1 0.0 4.0 40 63
- 0.20384 0 4 tcp 1040 ------- 1 0.0 4.0 23 36
r 0.20416 1 2 tcp 40 ------- 2 1.0 2.0 0 61
+ 0.20416 2 1 ack 40 ------- 2 2.0 1.0 0 64
- 0.20416 2 1 ack 40 ------- 2 2.0 1.0 0 64
r 0.20784 0 4 tcp 1040 ------- 1 0.0 4.0 22 34
+ 0.20784 4 0 ack 40 ------- 1 4.0 0.0 22 65
- 0.20784 4 0 ack 40 ------- 1 4.0 0.0 22 65
r 0.20784 4 0 ack 40 ------- 1 4.0 0.0 21 62
+ 0.20784 0 4 tcp 1040 ------- 1 0.0 4.0 41 66
- 0.208 0 4 tcp 1040 ------- 1 0.0 4.0 24 37
r 0.20832 2 1 ack 40 ------- 2 2.0 1.0 0 64
+ 0.20832 1 2 tcp 1040 ------- 2 1.0 2.0 1 67
- 0.20832 1 2 tcp 1040 ------- 2 1.0 2.0 1 67
+ 0.20832 1 2 tcp 1040 ------- 2 1.0 2.0 2 68
r 0.212 0 4 tcp 1040 ------- 1 0.0 4.0 23 36
+ 0.212 4 0 ack 40 ------- 1 4.0 0.0 23 69
- 0.212 4 0 ack 40 ------- 1 4.0 0.0 23 69
r 0.212 4 0 ack 40 ------- 1 4.0 0.0 22 65
+ 0.212 0 4 tcp 1040 ------- 1 0.0 4.0 42 70
- 0.21216 0 4 tcp 1040 ------- 1 0.0 4.0 25 39
- 0.21248 1 2 tcp 1040 ------- 2 1.0 2.0 2 68
r 0.21616 0 4 tcp 1040 ------- 1 0.0 4.0 24 37
+ 0.21616 4 0 ack 40 ------- 1 4.0 0.0 24 71
- 0.21616 4 0 ack 40 ------- 1 4.0 0.0 24 71
r 0.21616 4 0 ack 40 ------- 1 4.0 0.0 23 69
+ 0.21616 0 4 tcp 1040 ------- 1 0.0 4.0 43 72
- 0.21632 0 4 tcp 1040 ------- 1 0.0 4.0 26 40
r 0.21648 1 2 tcp 1040 ------- 2 1.0 2.0 1 67
+ 0.21648 2 1 ack 40 ------- 2 2.0 1.0 1 73
- 0.21648 2 1 ack 40 ------- 2 2.0 1.0 1 73
r 0.22032 0 4 tcp 1040 ------- 1 0.0 4.0 25 39
+ 0.22032 4 0 ack 40 ------- 1 4.0 0.0 25 74
- 0.22032 4 0 ack 40 ------- 1 4.0 0.0 25 74
r 0.22032 4 0 ack 40 ------- 1 4.0 0.0 24 71
+ 0.22032 0 4 tcp 1040 ------- 1 0.0 4.0 44 75
- 0.22048 0 4 tcp 1040 ------- 1 0.0 4.0 27 42
r 0.22064 1 2 tcp 1040 ------- 2 1.0 2.0 2 68
+ 0.22064 2 1 ack 40 ------- 2 2.0 1.0 2 76
- 0.22064 2 1 ack 40 ------- 2 2.0 1.0 2 76
r 0.22064 2 1 ack 40 ------- 2 2.0 1.0 1 73
+ 0.22064 1 2 tcp 1040 ------- 2 1.0 2.0 3 77
- 0.22064 1 2 tcp 1040 ------- 2 1.0 2.0 3 77
+ 0.22064 1 2 tcp 1040 ------- 2 1.0 2.0 4 78
r 0.22448 0 4 tcp 1040 ------- 1 0.0 4.0 26 40
+ 0.22448 4 0 ack 40 ------- 1 4.0 0.0 26 79
- 0.22448 4 0 ack 40 ------- 1 4.0 0.0 26 79
r 0.22448 4 0 ack 40 ------- 1 4.0 0.0 25 74
+ 0.22448 0 4 tcp 1040 ------- 1 0.0 4.0 45 80
- 0.22464 0 4 tcp 1040 ------- 1 0.0 4.0 28 43
r 0.2248 2 1 ack 40 ------- 2 2.0 1.0 2 76
+ 0.2248 1 2 tcp 1040 ------- 2 1.0 2.0 5 81
+ 0.2248 1 2 tcp 1040 ------- 2 1.0 2.0 6 82
- 0.2248 1 2 tcp 1040 ------- 2 1.0 2.0 4 78
r 0.22864 0 4 tcp 1040 ------- 1 0.0 4.0 27 42
+ 0.22864 4 0 ack 40 ------- 1 4.0 0.0 27 83
- 0.22864 4 0 ack 40 ------- 1 4.0 0.0 27 83
r 0.22864 4 0 ack 40 ------- 1 4.0 0.0 26 79
+ 0.22864 0 4 tcp 1040 ------- 1 0.0 4.0 46 84
- 0.2288 0 4 tcp 1040 ------- 1 0.0 4.0 29 45
r 0.2288 1 2 tcp 1040 ------- 2 1.0 2.0 3 77
+ 0.2288 2 1 ack 40 ------- 2 2.0 1.0 3 85
- 0.2288 2 1 ack 40 ------- 2 2.0 1.0 3 85
- 0.22896 1 2 tcp 1040 ------- 2 1.0 2.0 5 81
r 0.2328 0 4 tcp 1040 ------- 1 0.0 4.0 28 43
+ 0.2328 4 0 ack 40 ------- 1 4.0 0.0 28 86
- 0.2328 4 0 ack 40 ------- 1 4.0 0.0 28 86
r 0.2328 4 0 ack 40 ------- 1 4.0 0.0 27 83
+ 0.2328 0 4 tcp 1040 ------- 1 0.0 4.0 47 87
- 0.23296 0 4 tcp 1040 ------- 1 0.0 4.0 30 46
r 0.23296 1 2 tcp 1040 ------- 2 1.0 2.0 4 78
+ 0.23296 2 1 ack 40 ------- 2 2.0 1.0 4 88
- 0.23296 2 1 ack 40 ------- 2 2.0 1.0 4 88
r 0.23296 2 1 ack 40 ------- 2 2.0 1.0 3 85
+ 0.23296 1 2 tcp 1040 ------- 2 1.0 2.0 7 89
+ 0.23296 1 2 tcp 1040 ------- 2 1.0 2.0 8 90
- 0.23312 1 2 tcp 1040 ------- 2 1.0 2.0 6 82
r 0.23696 0 4 tcp 1040 ------- 1 0.0 4.0 29 45
+ 0.23696 4 0 ack 40 ------- 1 4.0 0.0 29 91
- 0.23696 4 0 ack 40 ------- 1 4.0 0.0 29 91
r 0.23696 4 0 ack 40 ------- 1 4.0 0.0 28 86
+ 0.23696 0 4 tcp 1040 ------- 1 0.0 4.0 48 92
- 0.23712 0 4 tcp 1040 ------- 1 0.0 4.0 31 48
r 0.23712 1 2 tcp 1040 ------- 2 1.0 2.0 5 81
+ 0.23712 2 1 ack 40 ------- 2 2.0 1.0 5 93
- 0.23712 2 1 ack 40 ------- 2 2.0 1.0 5 93
r 0.23712 2 1 ack 40 ------- 2 2.0 1.0 4 88
+ 0.23712 1 2 tcp 1040 ------- 2 1.0 2.0 9 94
+ 0.23712 1 2 tcp 1040 ------- 2 1.0 2.0 10 95
- 0.23728 1 2 tcp 1040 ------- 2 1.0 2.0 7 89
r 0.24112 0 4 tcp 1040 ------- 1 0.0 4.0 30 46
+ 0.24112 4 0 ack 40 ------- 1 4.0 0.0 30 96
- 0.24112 4 0 ack 40 ------- 1 4.0 0.0 30 96
r 0.24112 4 0 ack 40 ------- 1 4.0 0.0 29 91
+ 0.24112 0 4 tcp 1040 ------- 1 0.0 4.0 49 97
- 0.24128 0 4 tcp 1040 ------- 1 0.0 4.0 32 49
r 0.24128 1 2 tcp 1040 ------- 2 1.0 2.0 6 82
+ 0.24128 2 1 ack 40 ------- 2 2.0 1.0 6 98
- 0.24128 2 1 ack 40 ------- 2 2.0 1.0 6 98
r 0.24128 2 1 ack 40 ------- 2 2.0 1.0 5 93
+ 0.24128 1 2 tcp 1040 ------- 2 1.0 2.0 11 99
+ 0.24128 1 2 tcp 1040 ------- 2 1.0 2.0 12 100
- 0.24144 1 2 tcp 1040 ------- 2 1.0 2.0 8 90
r 0.24528 0 4 tcp 1040 ------- 1 0.0 4.0 31 48
+ 0.24528 4 0 ack 40 ------- 1 4.0 0.0 31 101
- 0.24528 4 0 ack 40 ------- 1 4.0 0.0 31 101
r 0.24528 4 0 ack 40 ------- 1 4.0 0.0 30 96
+ 0.24528 0 4 tcp 1040 ------- 1 0.0 4.0 50 102
- 0.24544 0 4 tcp 1040 ------- 1 0.0 4.0 33 51
r 0.24544 1 2 tcp 1040 ------- 2 1.0 2.0 7 89
+ 0.24544 2 1 ack 40 ------- 2 2.0 1.0 7 103
- 0.24544 2 1 ack 40 ------- 2 2.0 1.0 7 103
r 0.24544 2 1 ack 40 ------- 2 2.0 1.0 6 98
+ 0.24544 1 2 tcp 1040 ------- 2 1.0 2.0 13 104
- 0.2456 1 2 tcp 1040 ------- 2 1.0 2.0 9 94
+ 0.24875 1 2 tcp 1040 ------- 2 1.0 2.0 14 105
r 0.24944 0 4 tcp 1040 ------- 1 0.0 4.0 32 49
+ 0.24944 4 0 ack 40 ------- 1 4.0 0.0 32 106
- 0.24944 4 0 ack 40 ------- 1 4.0 0.0 32 106
r 0.24944 4 0 ack 40 ------- 1 4.0 0.0 31 101
+ 0.24944 0 4 tcp 1040 ------- 1 0.0 4.0 51 107
- 0.2496 0 4 tcp 1040 ------- 1 0.0 4.0 34 52
r 0.2496 1 2 tcp 1040 ------- 2 1.0 2.0 8 90
+ 0.2496 2 1 ack 40 ------- 2 2.0 1.0 8 108
- 0.2496 2 1 ack 40 ------- 2 2.0 1.0 8 108
r 0.2496 2 1 ack 40 ------- 2 2.0 1.0 7 103
- 0.24976 1 2 tcp 1040 ------- 2 1.0 2.0 10 95
+ 0.2525 1 2 tcp 1040 ------- 2 1.0 2.0 15 109
r 0.2536 0 4 tcp 1040 ------- 1 0.0 4.0 33 51
+ 0.2536 4 0 ack 40 ------- 1 4.0 0.0 33 110
- 0.2536 4 0 ack 40 ------- 1 4.0 0.0 33 110
r 0.2536 4 0 ack 40 ------- 1 4.0 0.0 32 106
+ 0.2536 0 4 tcp 1040 ------- 1 0.0 4.0 52 111
- 0.25376 0 4 tcp 1040 ------- 1 0.0 4.0 35 54
r 0.25376 1 2 tcp 1040 ------- 2 1.0 2.0 9 94
+ 0.25376 2 1 ack 40 ------- 2 2.0 1.0 9 112
- 0.25376 2 1 ack 40 ------- 2 2.0 1.0 9 112
r 0.25376 2 1 ack 40 ------- 2 2.0 1.0 8 108
- 0.25392 1 2 tcp 1040 ------- 2 1.0 2.0 11 99
+ 0.25625 1 2 tcp 1040 ------- 2 1.0 2.0 16 113
r 0.25776 0 4 tcp 1040 ------- 1 0.0 4.0 34 52
+ 0.25776 4 0 ack 40 ------- 1 4.0 0.0 34 114
- 0.25776 4 0 ack 40 ------- 1 4.0 0.0 34 114
r 0.25776 4 0 ack 40 ------- 1 4.0 0.0 33 110
+ 0.25776 0 4 tcp 1040 ------- 1 0.0 4.0 53 115
- 0.25792 0 4 tcp 1040 ------- 1 0.0 4.0 36 55
r 0.25792 1 2 tcp 1040 ------- 2 1.0 2.0 10 95
+ 0.25792 2 1 ack 40 ------- 2 2.0 1.0 10 116
- 0.25792 2 1 ack 40 ------- 2 2.0 1.0 10 116
r 0.25792 2 1 ack 40 ------- 2 2.0 1.0 9 112
- 0.25808 1 2 tcp 1040 ------- 2 1.0 2.0 12 100
+ 0.26 1 2 tcp 1040 ------- 2 1.0 2.0 17 117
r 0.26192 4 0 ack 40 ------- 1 4.0 0.0 34 114
+ 0.26192 0 4 tcp 1040 ------- 1 0.0 4.0 54 118
r 0.26192 0 4 tcp 1040 ------- 1 0.0 4.0 35 54
+ 0.26192 4 0 ack 40 ------- 1 4.0 0.0 35 119
- 0.26192 4 0 ack 40 ------- 1 4.0 0.0 35 119
- 0.26208 0 4 tcp 1040 ------- 1 0.0 4.0 37 57
r 0.26208 1 2 tcp 1040 ------- 2 1.0 2.0 11 99
+ 0.26208 2 1 ack 40 ------- 2 2.0 1.0 11 120
- 0.26208 2 1 ack 40 ------- 2 2.0 1.0 11 120
r 0.26208 2 1 ack 40 ------- 2 2.0 1.0 10 116
- 0.26224 1 2 tcp 1040 ------- 2 1.0 2.0 13 104
+ 0.26375 1 2 tcp 1040 ------- 2 1.0 2.0 18 121
r 0.26608 0 4 tcp 1040 ------- 1 0.0 4.0 36 55
+ 0.26608 4 0 ack 40 ------- 1 4.0 0.0 36 122
- 0.26608 4 0 ack 40 ------- 1 4.0 0.0 36 122
r 0.26608 4 0 ack 40 ------- 1 4.0 0.0 35 119
+ 0.26608 0 4 tcp 1040 ------- 1 0.0 4.0 55 123
- 0.26624 0 4 tcp 1040 ------- 1 0.0 4.0 38 58
r 0.26624 1 2 tcp 1040 ------- 2 1.0 2.0 12 100
+ 0.26624 2 1 ack 40 ------- 2 2.0 1.0 12 124
- 0.26624 2 1 ack 40 ------- 2 2.0 1.0 12 124
r 0.26624 2 1 ack 40 ------- 2 2.0 1.0 11 120
- 0.2664 1 2 tcp 1040 ------- 2 1.0 2.0 14 105
+ 0.2675 1 2 tcp 1040 ------- 2 1.0 2.0 19 125
r 0.27024 0 4 tcp 1040 ------- 1 0.0 4.0 37 57
+ 0.27024 4 0 ack 40 ------- 1 4.0 0.0 37 126
- 0.27024 4 0 ack 40 ------- 1 4.0 0.0 37 126
r 0.27024 4 0 ack 40 ------- 1 4.0 0.0 36 122
+ 0.27024 0 4 tcp 1040 ------- 1 0.0 4.0 56 127
- 0.2704 0 4 tcp 1040 ------- 1 0.0 4.0 39 60
r 0.2704 1 2 tcp 1040 ------- 2 1.0 2.0 13 104
+ 0.2704 2 1 ack 40 ------- 2 2.0 1.0 13 128
- 0.2704 2 1 ack 40 ------- 2 2.0 1.0 13 128
r 0.2704 2 1 ack 40 ------- 2 2.0 1.0 12 124
- 0.27056 1 2 tcp 1040 ------- 2 1.0 2.0 15 109
+ 0.27125 1 2 tcp 1040 ------- 2 1.0 2.0 20 129
r 0.2744 0 4 tcp 1040 ------- 1 0.0 4.0 38 58
+ 0.2744 4 0 ack 40 ------- 1 4.0 0.0 38 130
- 0.2744 4 0 ack 40 ------- 1 4.0 0.0 38 130
r 0.2744 4 0 ack 40 ------- 1 4.0 0.0 37 126
+ 0.2744 0 4 tcp 1040 ------- 1 0.0 4.0 57 131
- 0.27456 0 4 tcp 1040 ------- 1 0.0 4.0 40 63
r 0.27456 1 2 tcp 1040 ------- 2 1.0 2.0 14 105
+ 0.27456 2 1 ack 40 ------- 2 2.0 1.0 14 132
- 0.27456 2 1 ack 40 ------- 2 2.0 1.0 14 132
r 0.27456 2 1 ack 40 ------- 2 2.0 1.0 13 128
- 0.27472 1 2 tcp 1040 ------- 2 1.0 2.0 16 113
+ 0.275 1 2 tcp 1040 ------- 2 1.0 2.0 21 133
r 0.27856 0 4 tcp 1040 ------- 1 0.0 4.0 39 60
+ 0.27856 4 0 ack 40 ------- 1 4.0 0.0 39 134
- 0.27856 4 0 ack 40 ------- 1 4.0 0.0 39 134
r 0.27856 4 0 ack 40 ------- 1 4.0 0.0 38 130
+ 0.27856 0 4 tcp 1040 ------- 1 0.0 4.0 58 135
- 0.27872 0 4 tcp 1040 ------- 1 0.0 4.0 41 66
r 0.27872 1 2 tcp 1040 ------- 2 1.0 2.0 15 109
+ 0.27872 2 1 ack 40 ------- 2 2.0 1.0 15 136
- 0.27872 2 1 ack 40 ------- 2 2.0 1.0 15 136
r 0.27872 2 1 ack 40 ------- 2 2.0 1.0 14 132
+ 0.27875 1 2 tcp 1040 ------- 2 1.0 2.0 22 137
- 0.27888 1 2 tcp 1040 ------- 2 1.0 2.0 17 117
+ 0.2825 1 2 tcp 1040 ------- 2 1.0 2.0 23 138
r 0.28272 0 4 tcp 1040 ------- 1 0.0 4.0 40 63
+ 0.28272 4 0 ack 40 ------- 1 4.0 0.0 40 139
- 0.28272 4 0 ack 40 ------- 1 4.0 0.0 40 139
r 0.28272 4 0 ack 40 ------- 1 4.0 0.0 39 134
+ 0.28272 0 4 tcp 1040 ------- 1 0.0 4.0 59 140
- 0.28288 0 4 tcp 1040 ------- 1 0.0 4.0 42 70
r 0.28288 1 2 tcp 1040 ------- 2 1.0 2.0 16 113
+ 0.28288 2 1 ack 40 ------- 2 2.0 1.0 16 141
- 0.28288 2 1 ack 40 ------- 2 2.0 1.0 16 141
r 0.28288 2 1 ack 40 ------- 2 2.0 1.0 15 136
- 0.28304 1 2 tcp 1040 ------- 2 1.0 2.0 18 121
+ 0.28625 1 2 tcp 1040 ------- 2 1.0 2.0 24 142
r 0.28688 0 4 tcp 1040 ------- 1 0.0 4.0 41 66
+ 0.28688 4 0 ack 40 ------- 1 4.0 0.0 41 143
- 0.28688 4 0 ack 40 ------- 1 4.0 0.0 41 143
r 0.28688 4 0 ack 40 ------- 1 4.0 0.0 40 139
+ 0.28688 0 4 tcp 1040 ------- 1 0.0 4.0 60 144
- 0.28704 0 4 tcp 1040 ------- 1 0.0 4.0 43 72
r 0.28704 1 2 tcp 1040 ------- 2 1.0 2.0 17 117
+ 0.28704 2 1 ack 40 ------- 2 2.0 1.0 17 145
- 0.28704 2 1 ack 40 ------- 2 2.0 1.0 17 145
r 0.28704 2 1 ack 40 ------- 2 2.0 1.0 16 141
- 0.2872 1 2 tcp 1040 ------- 2 1.0 2.0 19 125
+ 0.29 1 2 tcp 1040 ------- 2 1.0 2.0 25 146
r 0.29104 0 4 tcp 1040 ------- 1 0.0 4.0 42 70
+ 0.29104 4 0 ack 40 ------- 1 4.0 0.0 42 147
- 0.29104 4 0 ack 40 ------- 1 4.0 0.0 42 147
r 0.29104 4 0 ack 40 ------- 1 4.0 0.0 41 143
+ 0.29104 0 4 tcp 1040 ------- 1 0.0 4.0 61 148
- 0.2912 0 4 tcp 1040 ------- 1 0.0 4.0 44 75
r 0.2912 1 2 tcp 1040 ------- 2 1.0 2.0 18 121
+ 0.2912 2 1 ack 40 ------- 2 2.0 1.0 18 149
- 0.2912 2 1 ack 40 ------- 2 2.0 1.0 18 149
r 0.2912 2 1 ack 40 ------- 2 2.0 1.0 17 145
- 0.29136 1 2 tcp 1040 ------- 2 1.0 2.0 20 129
+ 0.29375 1 2 tcp 1040 ------- 2 1.0 2.0 26 150
r 0.2952 0 4 tcp 1040 ------- 1 0.0 4.0 43 72
+ 0.2952 4 0 ack 40 ------- 1 4.0 0.0 43 151
- 0.2952 4 0 ack 40 ------- 1 4.0 0.0 43 151
r 0.2952 4 0 ack 40 ------- 1 4.0 0.0 42 147
+ 0.2952 0 4 tcp 1040 ------- 1 0.0 4.0 62 152
- 0.29536 0 4 tcp 1040 ------- 1 0.0 4.0 45 80
r 0.29536 1 2 tcp 1040 ------- 2 1.0 2.0 19 125
+ 0.29536 2 1 ack 40 ------- 2 2.0 1.0 19 153
- 0.29536 2 1 ack 40 ------- 2 2.0 1.0 19 153
r 0.29536 2 1 ack 40 ------- 2 2.0 1.0 18 149
- 0.29552 1 2 tcp 1040 ------- 2 1.0 2.0 21 133
+ 0.2975 1 2 tcp 1040 ------- 2 1.0 2.0 27 154
r 0.29936 0 4 tcp 1040 ------- 1 0.0 4.0 44 75
+ 0.29936 4 0 ack 40 ------- 1 4.0 0.0 44 155
- 0.29936 4 0 ack 40 ------- 1 4.0 0.0 44 155
r 0.29936 4 0 ack 40 ------- 1 4.0 0.0 43 151
+ 0.29936 0 4 tcp 1040 ------- 1 0.0 4.0 63 156
- 0.29952 0 4 tcp 1040 ------- 1 0.0 4.0 46 84
r 0.29952 1 2 tcp 1040 ------- 2 1.0 2.0 20 129
+ 0.29952 2 1 ack 40 ------- 2 2.0 1.0 20 157
- 0.29952 2 1 ack 40 ------- 2 2.0 1.0 20 157
r 0.29952 2 1 ack 40 ------- 2 2.0 1.0 19 153
- 0.29968 1 2 tcp 1040 ------- 2 1.0 2.0 22 137
+ 0.30125 1 2 tcp 1040 ------- 2 1.0 2.0 28 158
r 0.30352 0 4 tcp 1040 ------- 1 0.0 4.0 45 80
+ 0.30352 4 0 ack 40 ------- 1 4.0 0.0 45 159
- 0.30352 4 0 ack 40 ------- 1 4.0 0.0 45 159
r 0.30352 4 0 ack 40 ------- 1 4.0 0.0 44 155
+ 0.30352 0 4 tcp 1040 ------- 1 0.0 4.0 64 160
- 0.30368 0 4 tcp 1040 ------- 1 0.0 4.0 47 87
r 0.30368 1 2 tcp 1040 ------- 2 1.0 2.0 21 133
+ 0.30368 2 1 ack 40 ------- 2 2.0 1.0 21 161
- 0.30368 2 1 ack 40 ------- 2 2.0 1.0 21 161
r 0.30368 2 1 ack 40 ------- 2 2.0 1.0 20 157
- 0.30384 1 2 tcp 1040 ------- 2 1.0 2.0 23 138
+ 0.305 1 2 tcp 1040 ------- 2 1.0 2.0 29 162
r 0.30768 0 4 tcp 1040 ------- 1 0.0 4.0 46 84
+ 0.30768 4 0 ack 40 ------- 1 4.0 0.0 46 163
- 0.30768 4 0 ack 40 ------- 1 4.0 0.0 46 163
r 0.30768 4 0 ack 40 ------- 1 4.0 0.0 45 159
+ 0.30768 0 4 tcp 1040 ------- 1 0.0 4.0 65 164
- 0.30784 0 4 tcp 1040 ------- 1 0.0 4.0 48 92
r 0.30784 1 2 tcp 1040 ------- 2 1.0 2.0 22 137
+ 0.30784 2 1 ack 40 ------- 2 2.0 1.0 22 165
- 0.30784 2 1 ack 40 ------- 2 2.0 1.0 22 165
r 0.30784 2 1 ack 40 ------- 2 2.0 1.0 21 161
- 0.308 1 2 tcp 1040 ------- 2 1.0 2.0 24 142
+ 0.30875 1 2 tcp 1040 ------- 2 1.0 2.0 30 166
r 0.31184 0 4 tcp 1040 ------- 1 0.0 4.0 47 87
+ 0.31184 4 0 ack 40 ------- 1 4.0 0.0 47 167
- 0.31184 4 0 ack 40 ------- 1 4.0 0.0 47 167
r 0.31184 4 0 ack 40 ------- 1 4.0 0.0 46 163
+ 0.31184 0 4 tcp 1040 ------- 1 0.0 4.0 66 168
- 0.312 0 4 tcp 1040 ------- 1 0.0 4.0 49 97
r 0.312 1 2 tcp 1040 ------- 2 1.0 2.0 23 138
+ 0.312 2 1 ack 40 ------- 2 2.0 1.0 23 169
- 0.312 2 1 ack 40 ------- 2 2.0 1.0 23 169
r 0.312 2 1 ack 40 ------- 2 2.0 1.0 22 165
- 0.31216 1 2 tcp 1040 ------- 2 1.0 2.0 25 146
+ 0.3125 1 2 tcp 1040 ------- 2 1.0 2.0 31 170
r 0.316 0 4 tcp 1040 ------- 1 0.0 4.0 48 92
+ 0.316 4 0 ack 40 ------- 1 4.0 0.0 48 171
- 0.316 4 0 ack 40 ------- 1 4.0 0.0 48 171
r 0.316 4 0 ack 40 ------- 1 4.0 0.0 47 167
+ 0.316 0 4 tcp 1040 ------- 1 0.0 4.0 67 172
- 0.31616 0 4 tcp 1040 ------- 1 0.0 4.0 50 102
r 0.31616 1 2 tcp 1040 ------- 2 1.0 2.0 24 142
+ 0.31616 2 1 ack 40 ------- 2 2.0 1.0 24 173
- 0.31616 2 1 ack 40 ------- 2 2.0 1.0 24 173
r 0.31616 2 1 ack 40 ------- 2 2.0 1.0 23 169
+ 0.31625 1 2 tcp 1040 ------- 2 1.0 2.0 32 174
- 0.31632 1 2 tcp 1040 ------- 2 1.0 2.0 26 150
+ 0.32 1 2 tcp 1040 ------- 2 1.0 2.0 33 175
r 0.32016 0 4 tcp 1040 ------- 1 0.0 4.0 49 97
+ 0.32016 4 0 ack 40 ------- 1 4.0 0.0 49 176
- 0.32016 4 0 ack 40 ------- 1 4.0 0.0 49 176
r 0.32016 4 0 ack 40 ------- 1 4.0 0.0 48 171
+ 0.32016 0 4 tcp 1040 ------- 1 0.0 4.0 68 177
- 0.32032 0 4 tcp 1040 ------- 1 0.0 4.0 51 107
r 0.32032 1 2 tcp 1040 ------- 2 1.0 2.0 25 146
+ 0.32032 2 1 ack 40 ------- 2 2.0 1.0 25 178
- 0.32032 2 1 ack 40 ------- 2 2.0 1.0 25 178
r 0.32032 2 1 ack 40 ------- 2 2.0 1.0 24 173
- 0.32048 1 2 tcp 1040 ------- 2 1.0 2.0 27 154
+ 0.32375 1 2 tcp 1040 ------- 2 1.0 2.0 34 179
r 0.32432 0 4 tcp 1040 ------- 1 0.0 4.0 50 102
+ 0.32432 4 0 ack 40 ------- 1 4.0 0.0 50 180
- 0.32432 4 0 ack 40 ------- 1 4.0 0.0 50 180
r 0.32432 4 0 ack 40 ------- 1 4.0 0.0 49 176
+ 0.32432 0 4 tcp 1040 ------- 1 0.0 4.0 69 181
- 0.32448 0 4 tcp 1040 ------- 1 0.0 4.0 52 111
r 0.32448 1 2 tcp 1040 ------- 2 1.0 2.0 26 150
+ 0.32448 2 1 ack 40 ------- 2 2.0 1.0 26 182
- 0.32448 2 1 ack 40 ------- 2 2.0 1.0 26 182
r 0.32448 2 1 ack 40 ------- 2 2.0 1.0 25 178
- 0.32464 1 2 tcp 1040 ------- 2 1.0 2.0 28 158
+ 0.3275 1 2 tcp 1040 ------- 2 1.0 2.0 35 183
r 0.32848 0 4 tcp 1040 ------- 1 0.0 4.0 51 107
+ 0.32848 4 0 ack 40 ------- 1 4.0 0.0 51 184
- 0.32848 4 0 ack 40 ------- 1 4.0 0.0 51 184
r 0.32848 4 0 ack 40 ------- 1 4.0 0.0 50 180
+ 0.32848 0 4 tcp 1040 ------- 1 0.0 4.0 70 185
- 0.32864 0 4 tcp 1040 ------- 1 0.0 4.0 53 115
r 0.32864 1 2 tcp 1040 ------- 2 1.0 2.0 27 154
+ 0.32864 2 1 ack 40 ------- 2 2.0 1.0 27 186
- 0.32864 2 1 ack 40 ------- 2 2.0 1.0 27 186
r 0.32864 2 1 ack 40 ------- 2 2.0 1.0 26 182
- 0.3288 1 2 tcp 1040 ------- 2 1.0 2.0 29 162
+ 0.33125 1 2 tcp 1040 ------- 2 1.0 2.0 36 187
r 0.33264 0 4 tcp 1040 ------- 1 0.0 4.0 52 111
+ 0.33264 4 0 ack 40 ------- 1 4.0 0.0 52 188
- 0.33264 4 0 ack 40 ------- 1 4.0 0.0 52 188
r 0.33264 4 0 ack 40 ------- 1 4.0 0.0 51 184
+ 0.33264 0 4 tcp 1040 ------- 1 0.0 4.0 71 189
- 0.3328 0 4 tcp 1040 ------- 1 0.0 4.0 54 118
r 0.3328 1 2 tcp 1040 ------- 2 1.0 2.0 28 158
+ 0.3328 2 1 ack 40 ------- 2 2.0 1.0 28 190
- 0.3328 2 1 ack 40 ------- 2 2.0 1.0 28 190
r 0.3328 2 1 ack 40 ------- 2 2.0 1.0 27 186
- 0.33296 1 2 tcp 1040 ------- 2 1.0 2.0 30 166
+ 0.335 1 2 tcp 1040 ------- 2 1.0 2.0 37 191
r 0.3368 0 4 tcp 1040 ------- 1 0.0 4.0 53 115
+ 0.3368 4 0 ack 40 ------- 1 4.0 0.0 53 192
- 0.3368 4 0 ack 40 ------- 1 4.0 0.0 53 192
r 0.3368 4 0 ack 40 ------- 1 4.0 0.0 52 188
+ 0.3368 0 4 tcp 1040 ------- 1 0.0 4.0 72 193
- 0.33696 0 4 tcp 1040 ------- 1 0.0 4.0 55 123
r 0.33696 1 2 tcp 1040 ------- 2 1.0 2.0 29 162
+ 0.33696 2 1 ack 40 ------- 2 2.0 1.0 29 194
- 0.33696 2 1 ack 40 ------- 2 2.0 1.0 29 194
r 0.33696 2 1 ack 40 ------- 2 2.0 1.0 28 190
- 0.33712 1 2 tcp 1040 ------- 2 1.0 2.0 31 170
+ 0.33875 1 2 tcp 1040 ------- 2 1.0 2.0 38 195
r 0.34096 0 4 tcp 1040 ------- 1 0.0 4.0 54 118
+ 0.34096 4 0 ack 40 ------- 1 4.0 0.0 54 196
- 0.34096 4 0 ack 40 ------- 1 4.0 0.0 54 196
r 0.34096 4 0 ack 40 ------- 1 4.0 0.0 53 192
+ 0.34096 0 4 tcp 1040 ------- 1 0.0 4.0 73 197
- 0.34112 0 4 tcp 1040 ------- 1 0.0 4.0 56 127
r 0.34112 1 2 tcp 1040 ------- 2 1.0 2.0 30 166
+ 0.34112 2 1 ack 40 ------- 2 2.0 1.0 30 198
- 0.34112 2 1 ack 40 ------- 2 2.0 1.0 30 198
r 0.34112 2 1 ack 40 ------- 2 2.0 1.0 29 194
- 0.34128 1 2 tcp 1040 ------- 2 1.0 2.0 32 174
+ 0.3425 1 2 tcp 1040 ------- 2 1.0 2.0 39 199
r 0.34512 0 4 tcp 1040 ------- 1 0.0 4.0 55 123
+ 0.34512 4 0 ack 40 ------- 1 4.0 0.0 55 200
- 0.34512 4 0 ack 40 ------- 1 4.0 0.0 55 200
r 0.34512 4 0 ack 40 ------- 1 4.0 0.0 54 196
+ 0.34512 0 4 tcp 1040 ------- 1 0.0 4.0 74 201
- 0.34528 0 4 tcp 1040 ------- 1 0.0 4.0 57 131
r 0.34528 1 2 tcp 1040 ------- 2 1.0 2.0 31 170
+ 0.34528 2 1 ack 40 ------- 2 2.0 1.0 31 202
- 0.34528 2 1 ack 40 ------- 2 2.0 1.0 31 202
r 0.34528 2 1 ack 40 ------- 2 2.0 1.0 30 198
- 0.34544 1 2 tcp 1040 ------- 2 1.0 2.0 33 175
+ 0.34625 1 2 tcp 1040 ------- 2 1.0 2.0 40 203
r 0.34928 0 4 tcp 1040 ------- 1 0.0 4.0 56 127
+ 0.34928 4 0 ack 40 ------- 1 4.0 0.0 56 204
- 0.34928 4 0 ack 40 ------- 1 4.0 0.0 56 204
r 0.34928 4 0 ack 40 ------- 1 4.0 0.0 55 200
+ 0.34928 0 4 tcp 1040 ------- 1 0.0 4.0 75 205
- 0.34944 0 4 tcp 1040 ------- 1 0.0 4.0 58 135
r 0.34944 1 2 tcp 1040 ------- 2 1.0 2.0 32 174
+ 0.34944 2 1 ack 40 ------- 2 2.0 1.0 32 206
- 0.34944 2 1 ack 40 ------- 2 2.0 1.0 32 206
r 0.34944 2 1 ack 40 ------- 2 2.0 1.0 31 202
- 0.3496 1 2 tcp 1040 ------- 2 1.0 2.0 34 179
+ 0.35 1 2 tcp 1040 ------- 2 1.0 2.0 41 207
r 0.35344 0 4 tcp 1040 ------- 1 0.0 4.0 57 131
+ 0.35344 4 0 ack 40 ------- 1 4.0 0.0 57 208
- 0.35344 4 0 ack 40 ------- 1 4.0 0.0 57 208
r 0.35344 4 0 ack 40 ------- 1 4.0 0.0 56 204
+ 0.35344 0 4 tcp 1040 ------- 1 0.0 4.0 76 209
- 0.3536 0 4 tcp 1040 ------- 1 0.0 4.0 59 140
r 0.3536 1 2 tcp 1040 ------- 2 1.0 2.0 33 175
+ 0.3536 2 1 ack 40 ------- 2 2.0 1.0 33 210
- 0.3536 2 1 ack 40 ------- 2 2.0 1.0 33 210
r 0.3536 2 1 ack 40 ------- 2 2.0 1.0 32 206
+ 0.35375 1 2 tcp 1040 ------- 2 1.0 2.0 42 211
- 0.35376 1 2 tcp 1040 ------- 2 1.0 2.0 35 183
+ 0.3575 1 2 tcp 1040 ------- 2 1.0 2.0 43 212
r 0.3576 0 4 tcp 1040 ------- 1 0.0 4.0 58 135
+ 0.3576 4 0 ack 40 ------- 1 4.0 0.0 58 213
- 0.3576 4 0 ack 40 ------- 1 4.0 0.0 58 213
r 0.3576 4 0 ack 40 ------- 1 4.0 0.0 57 208
+ 0.3576 0 4 tcp 1040 ------- 1 0.0 4.0 77 214
- 0.35776 0 4 tcp 1040 ------- 1 0.0 4.0 60 144
r 0.35776 1 2 tcp 1040 ------- 2 1.0 2.0 34 179
+ 0.35776 2 1 ack 40 ------- 2 2.0 1.0 34 215
- 0.35776 2 1 ack 40 ------- 2 2.0 1.0 34 215
r 0.35776 2 1 ack 40 ------- 2 2.0 1.0 33 210
- 0.35792 1 2 tcp 1040 ------- 2 1.0 2.0 36 187
+ 0.36125 1 2 tcp 1040 ------- 2 1.0 2.0 44 216
r 0.36176 0 4 tcp 1040 ------- 1 0.0 4.0 59 140
+ 0.36176 4 0 ack 40 ------- 1 4.0 0.0 59 217
- 0.36176 4 0 ack 40 ------- 1 4.0 0.0 59 217
r 0.36176 4 0 ack 40 ------- 1 4.0 0.0 58 213
+ 0.36176 0 4 tcp 1040 ------- 1 0.0 4.0 78 218
- 0.36192 0 4 tcp 1040 ------- 1 0.0 4.0 61 148
r 0.36192 1 2 tcp 1040 ------- 2 1.0 2.0 35 183
+ 0.36192 2 1 ack 40 ------- 2 2.0 1.0 35 219
- 0.36192 2 1 ack 40 ------- 2 2.0 1.0 35 219
r 0.36192 2 1 ack 40 ------- 2 2.0 1.0 34 215
- 0.36208 1 2 tcp 1040 ------- 2 1.0 2.0 37 191
+ 0.365 1 2 tcp 1040 ------- 2 1.0 2.0 45 220
r 0.36592 0 4 tcp 1040 ------- 1 0.0 4.0 60 144
+ 0.36592 4 0 ack 40 ------- 1 4.0 0.0 60 221
- 0.36592 4 0 ack 40 ------- 1 4.0 0.0 60 221
r 0.36592 4 0 ack 40 ------- 1 4.0 0.0 59 217
+ 0.36592 0 4 tcp 1040 ------- 1 0.0 4.0 79 222
- 0.36608 0 4 tcp 1040 ------- 1 0.0 4.0 62 152
r 0.36608 1 2 tcp 1040 ------- 2 1.0 2.0 36 187
+ 0.36608 2 1 ack 40 ------- 2 2.0 1.0 36 223
- 0.36608 2 1 ack 40 ------- 2 2.0 1.0 36 223
r 0.36608 2 1 ack 40 ------- 2 2.0 1.0 35 219
- 0.36624 1 2 tcp 1040 ------- 2 1.0 2.0 38 195
+ 0.36875 1 2 tcp 1040 ------- 2 1.0 2.0 46 224
r 0.37008 0 4 tcp 1040 ------- 1 0.0 4.0 61 148
+ 0.37008 4 0 ack 40 ------- 1 4.0 0.0 61 225
- 0.37008 4 0 ack 40 ------- 1 4.0 0.0 61 225
r 0.37008 4 0 ack 40 ------- 1 4.0 0.0 60 221
+ 0.37008 0 4 tcp 1040 ------- 1 0.0 4.0 80 226
- 0.37024 0 4 tcp 1040 ------- 1 0.0 4.0 63 156
r 0.37024 1 2 tcp 1040 ------- 2 1.0 2.0 37 191
+ 0.37024 2 1 ack 40 ------- 2 2.0 1.0 37 227
- 0.37024 2 1 ack 40 ------- 2 2.0 1.0 37 227
r 0.37024 2 1 ack 40 ------- 2 2.0 1.0 36 223
- 0.3704 1 2 tcp 1040 ------- 2 1.0 2.0 39 199
+ 0.3725 1 2 tcp 1040 ------- 2 1.0 2.0 47 228
r 0.37424 0 4 tcp 1040 ------- 1 0.0 4.0 62 152
+ 0.37424 4 0 ack 40 ------- 1 4.0 0.0 62 229
- 0.37424 4 0 ack 40 ------- 1 4.0 0.0 62 229
r 0.37424 4 0 ack 40 ------- 1 4.0 0.0 61 225
+ 0.37424 0 4 tcp 1040 ------- 1 0.0 4.0 81 230
- 0.3744 0 4 tcp 1040 ------- 1 0.0 4.0 64 160
r 0.3744 1 2 tcp 1040 ------- 2 1.0 2.0 38 195
+ 0.3744 2 1 ack 40 ------- 2 2.0 1.0 38 231
- 0.3744 2 1 ack 40 ------- 2 2.0 1.0 38 231
r 0.3744 2 1 ack 40 ------- 2 2.0 1.0 37 227
- 0.37456 1 2 tcp 1040 ------- 2 1.0 2.0 40 203
+ 0.37625 1 2 tcp 1040 ------- 2 1.0 2.0 48 232
r 0.3784 0 4 tcp 1040 ------- 1 0.0 4.0 63 156
+ 0.3784 4 0 ack 40 ------- 1 4.0 0.0 63 233
- 0.3784 4 0 ack 40 ------- 1 4.0 0.0 63 233
r 0.3784 4 0 ack 40 ------- 1 4.0 0.0 62 229
+ 0.3784 0 4 tcp 1040 ------- 1 0.0 4.0 82 234
- 0.37856 0 4 tcp 1040 ------- 1 0.0 4.0 65 164
r 0.37856 1 2 tcp 1040 ------- 2 1.0 2.0 39 199
+ 0.37856 2 1 ack 40 ------- 2 2.0 1.0 39 235