+ 0.1 0 3 tcp 40 ------- 1 0.0 4.0 0 0
- 0.1 0 3 tcp 40 ------- 1 0.0 4.0 0 0
r 0.10416 0 3 tcp 40 ------- 1 0.0 4.0 0 0
+ 0.10416 3 4 tcp 40 ------- 1 0.0 4.0 0 0
- 0.10416 3 4 tcp 40 ------- 1 0.0 4.0 0 0
r 0.10832 3 4 tcp 40 ------- 1 0.0 4.0 0 0
+ 0.10832 4 3 ack 40 ------- 1 4.0 0.0 0 1
- 0.10832 4 3 ack 40 ------- 1 4.0 0.0 0 1
r 0.11248 4 3 ack 40 ------- 1 4.0 0.0 0 1
+ 0.11248 3 0 ack 40 ------- 1 4.0 0.0 0 1
- 0.11248 3 0 ack 40 ------- 1 4.0 0.0 0 1
r 0.11664 3 0 ack 40 ------- 1 4.0 0.0 0 1
+ 0.11664 0 3 tcp 1040 ------- 1 0.0 4.0 1 2
- 0.11664 0 3 tcp 1040 ------- 1 0.0 4.0 1 2
+ 0.11664 0 3 tcp 1040 ------- 1 0.0 4.0 2 3
- 0.1208 0 3 tcp 1040 ------- 1 0.0 4.0 2 3
r 0.1248 0 3 tcp 1040 ------- 1 0.0 4.0 1 2
+ 0.1248 3 4 tcp 1040 ------- 1 0.0 4.0 1 2
- 0.1248 3 4 tcp 1040 ------- 1 0.0 4.0 1 2
r 0.12896 0 3 tcp 1040 ------- 1 0.0 4.0 2 3
+ 0.12896 3 4 tcp 1040 ------- 1 0.0 4.0 2 3
- 0.12896 3 4 tcp 1040 ------- 1 0.0 4.0 2 3
r 0.13296 3 4 tcp 1040 ------- 1 0.0 4.0 1 2
+ 0.13296 4 3 ack 40 ------- 1 4.0 0.0 1 4
- 0.13296 4 3 ack 40 ------- 1 4.0 0.0 1 4
r 0.13712 3 4 tcp 1040 ------- 1 0.0 4.0 2 3
+ 0.13712 4 3 ack 40 ------- 1 4.0 0.0 2 5
- 0.13712 4 3 ack 40 ------- 1 4.0 0.0 2 5
r 0.13712 4 3 ack 40 ------- 1 4.0 0.0 1 4
+ 0.13712 3 0 ack 40 ------- 1 4.0 0.0 1 4
- 0.13712 3 0 ack 40 ------- 1 4.0 0.0 1 4
r 0.14128 4 3 ack 40 ------- 1 4.0 0.0 2 5
+ 0.14128 3 0 ack 40 ------- 1 4.0 0.0 2 5
- 0.14128 3 0 ack 40 ------- 1 4.0 0.0 2 5
r 0.14128 3 0 ack 40 ------- 1 4.0 0.0 1 4
+ 0.14128 0 3 tcp 1040 ------- 1 0.0 4.0 3 6
- 0.14128 0 3 tcp 1040 ------- 1 0.0 4.0 3 6
+ 0.14128 0 3 tcp 1040 ------- 1 0.0 4.0 4 7
r 0.14544 3 0 ack 40 ------- 1 4.0 0.0 2 5
+ 0.14544 0 3 tcp 1040 ------- 1 0.0 4.0 5 8
+ 0.14544 0 3 tcp 1040 ------- 1 0.0 4.0 6 9
- 0.14544 0 3 tcp 1040 ------- 1 0.0 4.0 4 7
r 0.14944 0 3 tcp 1040 ------- 1 0.0 4.0 3 6
+ 0.14944 3 4 tcp 1040 ------- 1 0.0 4.0 3 6
- 0.14944 3 4 tcp 1040 ------- 1 0.0 4.0 3 6
- 0.1496 0 3 tcp 1040 ------- 1 0.0 4.0 5 8
r 0.1536 0 3 tcp 1040 ------- 1 0.0 4.0 4 7
+ 0.1536 3 4 tcp 1040 ------- 1 0.0 4.0 4 7
- 0.1536 3 4 tcp 1040 ------- 1 0.0 4.0 4 7
- 0.15376 0 3 tcp 1040 ------- 1 0.0 4.0 6 9
r 0.1576 3 4 tcp 1040 ------- 1 0.0 4.0 3 6
+ 0.1576 4 3 ack 40 ------- 1 4.0 0.0 3 10
- 0.1576 4 3 ack 40 ------- 1 4.0 0.0 3 10
r 0.15776 0 3 tcp 1040 ------- 1 0.0 4.0 5 8
+ 0.15776 3 4 tcp 1040 ------- 1 0.0 4.0 5 8
- 0.15776 3 4 tcp 1040 ------- 1 0.0 4.0 5 8
r 0.16176 3 4 tcp 1040 ------- 1 0.0 4.0 4 7
+ 0.16176 4 3 ack 40 ------- 1 4.0 0.0 4 11
- 0.16176 4 3 ack 40 ------- 1 4.0 0.0 4 11
r 0.16176 4 3 ack 40 ------- 1 4.0 0.0 3 10
+ 0.16176 3 0 ack 40 ------- 1 4.0 0.0 3 10
- 0.16176 3 0 ack 40 ------- 1 4.0 0.0 3 10
r 0.16192 0 3 tcp 1040 ------- 1 0.0 4.0 6 9
+ 0.16192 3 4 tcp 1040 ------- 1 0.0 4.0 6 9
- 0.16192 3 4 tcp 1040 ------- 1 0.0 4.0 6 9
r 0.16592 3 4 tcp 1040 ------- 1 0.0 4.0 5 8
+ 0.16592 4 3 ack 40 ------- 1 4.0 0.0 5 12
- 0.16592 4 3 ack 40 ------- 1 4.0 0.0 5 12
r 0.16592 4 3 ack 40 ------- 1 4.0 0.0 4 11
+ 0.16592 3 0 ack 40 ------- 1 4.0 0.0 4 11
- 0.16592 3 0 ack 40 ------- 1 4.0 0.0 4 11
r 0.16592 3 0 ack 40 ------- 1 4.0 0.0 3 10
+ 0.16592 0 3 tcp 1040 ------- 1 0.0 4.0 7 13
- 0.16592 0 3 tcp 1040 ------- 1 0.0 4.0 7 13
+ 0.16592 0 3 tcp 1040 ------- 1 0.0 4.0 8 14
r 0.17008 3 4 tcp 1040 ------- 1 0.0 4.0 6 9
+ 0.17008 4 3 ack 40 ------- 1 4.0 0.0 6 15
- 0.17008 4 3 ack 40 ------- 1 4.0 0.0 6 15
r 0.17008 4 3 ack 40 ------- 1 4.0 0.0 5 12
+ 0.17008 3 0 ack 40 ------- 1 4.0 0.0 5 12
- 0.17008 3 0 ack 40 ------- 1 4.0 0.0 5 12
r 0.17008 3 0 ack 40 ------- 1 4.0 0.0 4 11
+ 0.17008 0 3 tcp 1040 ------- 1 0.0 4.0 9 16
+ 0.17008 0 3 tcp 1040 ------- 1 0.0 4.0 10 17
- 0.17008 0 3 tcp 1040 ------- 1 0.0 4.0 8 14
r 0.17408 0 3 tcp 1040 ------- 1 0.0 4.0 7 13
+ 0.17408 3 4 tcp 1040 ------- 1 0.0 4.0 7 13
- 0.17408 3 4 tcp 1040 ------- 1 0.0 4.0 7 13
r 0.17424 4 3 ack 40 ------- 1 4.0 0.0 6 15
+ 0.17424 3 0 ack 40 ------- 1 4.0 0.0 6 15
- 0.17424 3 0 ack 40 ------- 1 4.0 0.0 6 15
r 0.17424 3 0 ack 40 ------- 1 4.0 0.0 5 12
+ 0.17424 0 3 tcp 1040 ------- 1 0.0 4.0 11 18
+ 0.17424 0 3 tcp 1040 ------- 1 0.0 4.0 12 19
- 0.17424 0 3 tcp 1040 ------- 1 0.0 4.0 9 16
r 0.17824 0 3 tcp 1040 ------- 1 0.0 4.0 8 14
+ 0.17824 3 4 tcp 1040 ------- 1 0.0 4.0 8 14
- 0.17824 3 4 tcp 1040 ------- 1 0.0 4.0 8 14
r 0.1784 3 0 ack 40 ------- 1 4.0 0.0 6 15
+ 0.1784 0 3 tcp 1040 ------- 1 0.0 4.0 13 20
+ 0.1784 0 3 tcp 1040 ------- 1 0.0 4.0 14 21
- 0.1784 0 3 tcp 1040 ------- 1 0.0 4.0 10 17
r 0.18224 3 4 tcp 1040 ------- 1 0.0 4.0 7 13
+ 0.18224 4 3 ack 40 ------- 1 4.0 0.0 7 22
- 0.18224 4 3 ack 40 ------- 1 4.0 0.0 7 22
r 0.1824 0 3 tcp 1040 ------- 1 0.0 4.0 9 16
+ 0.1824 3 4 tcp 1040 ------- 1 0.0 4.0 9 16
- 0.1824 3 4 tcp 1040 ------- 1 0.0 4.0 9 16
- 0.18256 0 3 tcp 1040 ------- 1 0.0 4.0 11 18
r 0.1864 3 4 tcp 1040 ------- 1 0.0 4.0 8 14
+ 0.1864 4 3 ack 40 ------- 1 4.0 0.0 8 23
- 0.1864 4 3 ack 40 ------- 1 4.0 0.0 8 23
r 0.1864 4 3 ack 40 ------- 1 4.0 0.0 7 22
+ 0.1864 3 0 ack 40 ------- 1 4.0 0.0 7 22
- 0.1864 3 0 ack 40 ------- 1 4.0 0.0 7 22
r 0.18656 0 3 tcp 1040 ------- 1 0.0 4.0 10 17
+ 0.18656 3 4 tcp 1040 ------- 1 0.0 4.0 10 17
- 0.18656 3 4 tcp 1040 ------- 1 0.0 4.0 10 17
- 0.18672 0 3 tcp 1040 ------- 1 0.0 4.0 12 19
r 0.19056 3 4 tcp 1040 ------- 1 0.0 4.0 9 16
+ 0.19056 4 3 ack 40 ------- 1 4.0 0.0 9 24
- 0.19056 4 3 ack 40 ------- 1 4.0 0.0 9 24
r 0.19056 4 3 ack 40 ------- 1 4.0 0.0 8 23
+ 0.19056 3 0 ack 40 ------- 1 4.0 0.0 8 23
- 0.19056 3 0 ack 40 ------- 1 4.0 0.0 8 23
r 0.19056 3 0 ack 40 ------- 1 4.0 0.0 7 22
+ 0.19056 0 3 tcp 1040 ------- 1 0.0 4.0 15 25
+ 0.19056 0 3 tcp 1040 ------- 1 0.0 4.0 16 26
r 0.19072 0 3 tcp 1040 ------- 1 0.0 4.0 11 18
+ 0.19072 3 4 tcp 1040 ------- 1 0.0 4.0 11 18
- 0.19072 3 4 tcp 1040 ------- 1 0.0 4.0 11 18
- 0.19088 0 3 tcp 1040 ------- 1 0.0 4.0 13 20
r 0.19472 3 4 tcp 1040 ------- 1 0.0 4.0 10 17
+ 0.19472 4 3 ack 40 ------- 1 4.0 0.0 10 27
- 0.19472 4 3 ack 40 ------- 1 4.0 0.0 10 27
r 0.19472 4 3 ack 40 ------- 1 4.0 0.0 9 24
+ 0.19472 3 0 ack 40 ------- 1 4.0 0.0 9 24
- 0.19472 3 0 ack 40 ------- 1 4.0 0.0 9 24
r 0.19472 3 0 ack 40 ------- 1 4.0 0.0 8 23
+ 0.19472 0 3 tcp 1040 ------- 1 0.0 4.0 17 28
+ 0.19472 0 3 tcp 1040 ------- 1 0.0 4.0 18 29
r 0.19488 0 3 tcp 1040 ------- 1 0.0 4.0 12 19
+ 0.19488 3 4 tcp 1040 ------- 1 0.0 4.0 12 19
- 0.19488 3 4 tcp 1040 ------- 1 0.0 4.0 12 19
- 0.19504 0 3 tcp 1040 ------- 1 0.0 4.0 14 21
r 0.19888 3 4 tcp 1040 ------- 1 0.0 4.0 11 18
+ 0.19888 4 3 ack 40 ------- 1 4.0 0.0 11 30
- 0.19888 4 3 ack 40 ------- 1 4.0 0.0 11 30
r 0.19888 4 3 ack 40 ------- 1 4.0 0.0 10 27
+ 0.19888 3 0 ack 40 ------- 1 4.0 0.0 10 27
- 0.19888 3 0 ack 40 ------- 1 4.0 0.0 10 27
r 0.19888 3 0 ack 40 ------- 1 4.0 0.0 9 24
+ 0.19888 0 3 tcp 1040 ------- 1 0.0 4.0 19 31
+ 0.19888 0 3 tcp 1040 ------- 1 0.0 4.0 20 32
r 0.19904 0 3 tcp 1040 ------- 1 0.0 4.0 13 20
+ 0.19904 3 4 tcp 1040 ------- 1 0.0 4.0 13 20
- 0.19904 3 4 tcp 1040 ------- 1 0.0 4.0 13 20
- 0.1992 0 3 tcp 1040 ------- 1 0.0 4.0 15 25
+ 0.2 1 3 tcp 40 ------- 2 1.0 2.0 0 33
- 0.2 1 3 tcp 40 ------- 2 1.0 2.0 0 33
r 0.20304 3 4 tcp 1040 ------- 1 0.0 4.0 12 19
+ 0.20304 4 3 ack 40 ------- 1 4.0 0.0 12 34
- 0.20304 4 3 ack 40 ------- 1 4.0 0.0 12 34
r 0.20304 4 3 ack 40 ------- 1 4.0 0.0 11 30
+ 0.20304 3 0 ack 40 ------- 1 4.0 0.0 11 30
- 0.20304 3 0 ack 40 ------- 1 4.0 0.0 11 30
r 0.20304 3 0 ack 40 ------- 1 4.0 0.0 10 27
+ 0.20304 0 3 tcp 1040 ------- 1 0.0 4.0 21 35
+ 0.20304 0 3 tcp 1040 ------- 1 0.0 4.0 22 36
r 0.2032 0 3 tcp 1040 ------- 1 0.0 4.0 14 21
+ 0.2032 3 4 tcp 1040 ------- 1 0.0 4.0 14 21
- 0.2032 3 4 tcp 1040 ------- 1 0.0 4.0 14 21
- 0.20336 0 3 tcp 1040 ------- 1 0.0 4.0 16 26
r 0.20416 1 3 tcp 40 ------- 2 1.0 2.0 0 33
+ 0.20416 3 2 tcp 40 ------- 2 1.0 2.0 0 33
- 0.20416 3 2 tcp 40 ------- 2 1.0 2.0 0 33
r 0.2072 3 4 tcp 1040 ------- 1 0.0 4.0 13 20
+ 0.2072 4 3 ack 40 ------- 1 4.0 0.0 13 37
- 0.2072 4 3 ack 40 ------- 1 4.0 0.0 13 37
r 0.2072 4 3 ack 40 ------- 1 4.0 0.0 12 34
+ 0.2072 3 0 ack 40 ------- 1 4.0 0.0 12 34
- 0.2072 3 0 ack 40 ------- 1 4.0 0.0 12 34
r 0.2072 3 0 ack 40 ------- 1 4.0 0.0 11 30
+ 0.2072 0 3 tcp 1040 ------- 1 0.0 4.0 23 38
+ 0.2072 0 3 tcp 1040 ------- 1 0.0 4.0 24 39
r 0.20736 0 3 tcp 1040 ------- 1 0.0 4.0 15 25
+ 0.20736 3 4 tcp 1040 ------- 1 0.0 4.0 15 25
- 0.20736 3 4 tcp 1040 ------- 1 0.0 4.0 15 25
- 0.20752 0 3 tcp 1040 ------- 1 0.0 4.0 17 28
r 0.20832 3 2 tcp 40 ------- 2 1.0 2.0 0 33
+ 0.20832 2 3 ack 40 ------- 2 2.0 1.0 0 40
- 0.20832 2 3 ack 40 ------- 2 2.0 1.0 0 40
r 0.21136 3 4 tcp 1040 ------- 1 0.0 4.0 14 21
+ 0.21136 4 3 ack 40 ------- 1 4.0 0.0 14 41
- 0.21136 4 3 ack 40 ------- 1 4.0 0.0 14 41
r 0.21136 4 3 ack 40 ------- 1 4.0 0.0 13 37
+ 0.21136 3 0 ack 40 ------- 1 4.0 0.0 13 37
- 0.21136 3 0 ack 40 ------- 1 4.0 0.0 13 37
r 0.21136 3 0 ack 40 ------- 1 4.0 0.0 12 34
+ 0.21136 0 3 tcp 1040 ------- 1 0.0 4.0 25 42
+ 0.21136 0 3 tcp 1040 ------- 1 0.0 4.0 26 43
r 0.21152 0 3 tcp 1040 ------- 1 0.0 4.0 16 26
+ 0.21152 3 4 tcp 1040 ------- 1 0.0 4.0 16 26
- 0.21152 3 4 tcp 1040 ------- 1 0.0 4.0 16 26
- 0.21168 0 3 tcp 1040 ------- 1 0.0 4.0 18 29
r 0.21248 2 3 ack 40 ------- 2 2.0 1.0 0 40
+ 0.21248 3 1 ack 40 ------- 2 2.0 1.0 0 40
- 0.21248 3 1 ack 40 ------- 2 2.0 1.0 0 40
r 0.21552 3 4 tcp 1040 ------- 1 0.0 4.0 15 25
+ 0.21552 4 3 ack 40 ------- 1 4.0 0.0 15 44
- 0.21552 4 3 ack 40 ------- 1 4.0 0.0 15 44
r 0.21552 4 3 ack 40 ------- 1 4.0 0.0 14 41
+ 0.21552 3 0 ack 40 ------- 1 4.0 0.0 14 41
- 0.21552 3 0 ack 40 ------- 1 4.0 0.0 14 41
r 0.21552 3 0 ack 40 ------- 1 4.0 0.0 13 37
+ 0.21552 0 3 tcp 1040 ------- 1 0.0 4.0 27 45
+ 0.21552 0 3 tcp 1040 ------- 1 0.0 4.0 28 46
r 0.21568 0 3 tcp 1040 ------- 1 0.0 4.0 17 28
+ 0.21568 3 4 tcp 1040 ------- 1 0.0 4.0 17 28
- 0.21568 3 4 tcp 1040 ------- 1 0.0 4.0 17 28
- 0.21584 0 3 tcp 1040 ------- 1 0.0 4.0 19 31
r 0.21664 3 1 ack 40 ------- 2 2.0 1.0 0 40
+ 0.21664 1 3 tcp 1040 ------- 2 1.0 2.0 1 47
- 0.21664 1 3 tcp 1040 ------- 2 1.0 2.0 1 47
+ 0.21664 1 3 tcp 1040 ------- 2 1.0 2.0 2 48
r 0.21968 3 4 tcp 1040 ------- 1 0.0 4.0 16 26
+ 0.21968 4 3 ack 40 ------- 1 4.0 0.0 16 49
- 0.21968 4 3 ack 40 ------- 1 4.0 0.0 16 49
r 0.21968 4 3 ack 40 ------- 1 4.0 0.0 15 44
+ 0.21968 3 0 ack 40 ------- 1 4.0 0.0 15 44
- 0.21968 3 0 ack 40 ------- 1 4.0 0.0 15 44
r 0.21968 3 0 ack 40 ------- 1 4.0 0.0 14 41
+ 0.21968 0 3 tcp 1040 ------- 1 0.0 4.0 29 50
+ 0.21968 0 3 tcp 1040 ------- 1 0.0 4.0 30 51
r 0.21984 0 3 tcp 1040 ------- 1 0.0 4.0 18 29
+ 0.21984 3 4 tcp 1040 ------- 1 0.0 4.0 18 29
- 0.21984 3 4 tcp 1040 ------- 1 0.0 4.0 18 29
- 0.22 0 3 tcp 1040 ------- 1 0.0 4.0 20 32
- 0.2208 1 3 tcp 1040 ------- 2 1.0 2.0 2 48
r 0.22384 3 4 tcp 1040 ------- 1 0.0 4.0 17 28
+ 0.22384 4 3 ack 40 ------- 1 4.0 0.0 17 52
- 0.22384 4 3 ack 40 ------- 1 4.0 0.0 17 52
r 0.22384 4 3 ack 40 ------- 1 4.0 0.0 16 49
+ 0.22384 3 0 ack 40 ------- 1 4.0 0.0 16 49
- 0.22384 3 0 ack 40 ------- 1 4.0 0.0 16 49
r 0.22384 3 0 ack 40 ------- 1 4.0 0.0 15 44
+ 0.22384 0 3 tcp 1040 ------- 1 0.0 4.0 31 53
+ 0.22384 0 3 tcp 1040 ------- 1 0.0 4.0 32 54
r 0.224 0 3 tcp 1040 ------- 1 0.0 4.0 19 31
+ 0.224 3 4 tcp 1040 ------- 1 0.0 4.0 19 31
- 0.224 3 4 tcp 1040 ------- 1 0.0 4.0 19 31
- 0.22416 0 3 tcp 1040 ------- 1 0.0 4.0 21 35
r 0.2248 1 3 tcp 1040 ------- 2 1.0 2.0 1 47
+ 0.2248 3 2 tcp 1040 ------- 2 1.0 2.0 1 47
- 0.2248 3 2 tcp 1040 ------- 2 1.0 2.0 1 47
r 0.228 3 4 tcp 1040 ------- 1 0.0 4.0 18 29
+ 0.228 4 3 ack 40 ------- 1 4.0 0.0 18 55
- 0.228 4 3 ack 40 ------- 1 4.0 0.0 18 55
r 0.228 4 3 ack 40 ------- 1 4.0 0.0 17 52
+ 0.228 3 0 ack 40 ------- 1 4.0 0.0 17 52
- 0.228 3 0 ack 40 ------- 1 4.0 0.0 17 52
r 0.228 3 0 ack 40 ------- 1 4.0 0.0 16 49
+ 0.228 0 3 tcp 1040 ------- 1 0.0 4.0 33 56
+ 0.228 0 3 tcp 1040 ------- 1 0.0 4.0 34 57
r 0.22816 0 3 tcp 1040 ------- 1 0.0 4.0 20 32
+ 0.22816 3 4 tcp 1040 ------- 1 0.0 4.0 20 32
- 0.22816 3 4 tcp 1040 ------- 1 0.0 4.0 20 32
- 0.22832 0 3 tcp 1040 ------- 1 0.0 4.0 22 36
r 0.22896 1 3 tcp 1040 ------- 2 1.0 2.0 2 48
+ 0.22896 3 2 tcp 1040 ------- 2 1.0 2.0 2 48
- 0.22896 3 2 tcp 1040 ------- 2 1.0 2.0 2 48
r 0.23216 3 4 tcp 1040 ------- 1 0.0 4.0 19 31
+ 0.23216 4 3 ack 40 ------- 1 4.0 0.0 19 58
- 0.23216 4 3 ack 40 ------- 1 4.0 0.0 19 58
r 0.23216 4 3 ack 40 ------- 1 4.0 0.0 18 55
+ 0.23216 3 0 ack 40 ------- 1 4.0 0.0 18 55
- 0.23216 3 0 ack 40 ------- 1 4.0 0.0 18 55
r 0.23216 3 0 ack 40 ------- 1 4.0 0.0 17 52
+ 0.23216 0 3 tcp 1040 ------- 1 0.0 4.0 35 59
+ 0.23216 0 3 tcp 1040 ------- 1 0.0 4.0 36 60
r 0.23232 0 3 tcp 1040 ------- 1 0.0 4.0 21 35
+ 0.23232 3 4 tcp 1040 ------- 1 0.0 4.0 21 35
- 0.23232 3 4 tcp 1040 ------- 1 0.0 4.0 21 35
- 0.23248 0 3 tcp 1040 ------- 1 0.0 4.0 23 38
r 0.23296 3 2 tcp 1040 ------- 2 1.0 2.0 1 47
+ 0.23296 2 3 ack 40 ------- 2 2.0 1.0 1 61
- 0.23296 2 3 ack 40 ------- 2 2.0 1.0 1 61
r 0.23632 3 4 tcp 1040 ------- 1 0.0 4.0 20 32
+ 0.23632 4 3 ack 40 ------- 1 4.0 0.0 20 62
- 0.23632 4 3 ack 40 ------- 1 4.0 0.0 20 62
r 0.23632 4 3 ack 40 ------- 1 4.0 0.0 19 58
+ 0.23632 3 0 ack 40 ------- 1 4.0 0.0 19 58
- 0.23632 3 0 ack 40 ------- 1 4.0 0.0 19 58
r 0.23632 3 0 ack 40 ------- 1 4.0 0.0 18 55
+ 0.23632 0 3 tcp 1040 ------- 1 0.0 4.0 37 63
+ 0.23632 0 3 tcp 1040 ------- 1 0.0 4.0 38 64
r 0.23648 0 3 tcp 1040 ------- 1 0.0 4.0 22 36
+ 0.23648 3 4 tcp 1040 ------- 1 0.0 4.0 22 36
- 0.23648 3 4 tcp 1040 ------- 1 0.0 4.0 22 36
- 0.23664 0 3 tcp 1040 ------- 1 0.0 4.0 24 39
r 0.23712 3 2 tcp 1040 ------- 2 1.0 2.0 2 48
+ 0.23712 2 3 ack 40 ------- 2 2.0 1.0 2 65
- 0.23712 2 3 ack 40 ------- 2 2.0 1.0 2 65
r 0.23712 2 3 ack 40 ------- 2 2.0 1.0 1 61
+ 0.23712 3 1 ack 40 ------- 2 2.0 1.0 1 61
- 0.23712 3 1 ack 40 ------- 2 2.0 1.0 1 61
r 0.24048 3 4 tcp 1040 ------- 1 0.0 4.0 21 35
+ 0.24048 4 3 ack 40 ------- 1 4.0 0.0 21 66
- 0.24048 4 3 ack 40 ------- 1 4.0 0.0 21 66
r 0.24048 4 3 ack 40 ------- 1 4.0 0.0 20 62
+ 0.24048 3 0 ack 40 ------- 1 4.0 0.0 20 62
- 0.24048 3 0 ack 40 ------- 1 4.0 0.0 20 62
r 0.24048 3 0 ack 40 ------- 1 4.0 0.0 19 58
+ 0.24048 0 3 tcp 1040 ------- 1 0.0 4.0 39 67
r 0.24064 0 3 tcp 1040 ------- 1 0.0 4.0 23 38
+ 0.24064 3 4 tcp 1040 ------- 1 0.0 4.0 23 38
- 0.24064 3 4 tcp 1040 ------- 1 0.0 4.0 23 38
- 0.2408 0 3 tcp 1040 ------- 1 0.0 4.0 25 42
r 0.24128 2 3 ack 40 ------- 2 2.0 1.0 2 65
+ 0.24128 3 1 ack 40 ------- 2 2.0 1.0 2 65
- 0.24128 3 1 ack 40 ------- 2 2.0 1.0 2 65
r 0.24128 3 1 ack 40 ------- 2 2.0 1.0 1 61
+ 0.24128 1 3 tcp 1040 ------- 2 1.0 2.0 3 68
- 0.24128 1 3 tcp 1040 ------- 2 1.0 2.0 3 68
+ 0.24128 1 3 tcp 1040 ------- 2 1.0 2.0 4 69
r 0.24464 3 4 tcp 1040 ------- 1 0.0 4.0 22 36
+ 0.24464 4 3 ack 40 ------- 1 4.0 0.0 22 70
- 0.24464 4 3 ack 40 ------- 1 4.0 0.0 22 70
r 0.24464 4 3 ack 40 ------- 1 4.0 0.0 21 66
+ 0.24464 3 0 ack 40 ------- 1 4.0 0.0 21 66
- 0.24464 3 0 ack 40 ------- 1 4.0 0.0 21 66
r 0.24464 3 0 ack 40 ------- 1 4.0 0.0 20 62
+ 0.24464 0 3 tcp 1040 ------- 1 0.0 4.0 40 71
r 0.2448 0 3 tcp 1040 ------- 1 0.0 4.0 24 39
+ 0.2448 3 4 tcp 1040 ------- 1 0.0 4.0 24 39
- 0.2448 3 4 tcp 1040 ------- 1 0.0 4.0 24 39
- 0.24496 0 3 tcp 1040 ------- 1 0.0 4.0 26 43
r 0.24544 3 1 ack 40 ------- 2 2.0 1.0 2 65
+ 0.24544 1 3 tcp 1040 ------- 2 1.0 2.0 5 72
+ 0.24544 1 3 tcp 1040 ------- 2 1.0 2.0 6 73
- 0.24544 1 3 tcp 1040 ------- 2 1.0 2.0 4 69
r 0.2488 3 4 tcp 1040 ------- 1 0.0 4.0 23 38
+ 0.2488 4 3 ack 40 ------- 1 4.0 0.0 23 74
- 0.2488 4 3 ack 40 ------- 1 4.0 0.0 23 74
r 0.2488 4 3 ack 40 ------- 1 4.0 0.0 22 70
+ 0.2488 3 0 ack 40 ------- 1 4.0 0.0 22 70
- 0.2488 3 0 ack 40 ------- 1 4.0 0.0 22 70
r 0.2488 3 0 ack 40 ------- 1 4.0 0.0 21 66
+ 0.2488 0 3 tcp 1040 ------- 1 0.0 4.0 41 75
r 0.24896 0 3 tcp 1040 ------- 1 0.0 4.0 25 42
+ 0.24896 3 4 tcp 1040 ------- 1 0.0 4.0 25 42
- 0.24896 3 4 tcp 1040 ------- 1 0.0 4.0 25 42
- 0.24912 0 3 tcp 1040 ------- 1 0.0 4.0 27 45
r 0.24944 1 3 tcp 1040 ------- 2 1.0 2.0 3 68
+ 0.24944 3 2 tcp 1040 ------- 2 1.0 2.0 3 68
- 0.24944 3 2 tcp 1040 ------- 2 1.0 2.0 3 68
- 0.2496 1 3 tcp 1040 ------- 2 1.0 2.0 5 72
r 0.25296 3 4 tcp 1040 ------- 1 0.0 4.0 24 39
+ 0.25296 4 3 ack 40 ------- 1 4.0 0.0 24 76
- 0.25296 4 3 ack 40 ------- 1 4.0 0.0 24 76
r 0.25296 4 3 ack 40 ------- 1 4.0 0.0 23 74
+ 0.25296 3 0 ack 40 ------- 1 4.0 0.0 23 74
- 0.25296 3 0 ack 40 ------- 1 4.0 0.0 23 74
r 0.25296 3 0 ack 40 ------- 1 4.0 0.0 22 70
+ 0.25296 0 3 tcp 1040 ------- 1 0.0 4.0 42 77
r 0.25312 0 3 tcp 1040 ------- 1 0.0 4.0 26 43
+ 0.25312 3 4 tcp 1040 ------- 1 0.0 4.0 26 43
- 0.25312 3 4 tcp 1040 ------- 1 0.0 4.0 26 43
- 0.25328 0 3 tcp 1040 ------- 1 0.0 4.0 28 46
r 0.2536 1 3 tcp 1040 ------- 2 1.0 2.0 4 69
+ 0.2536 3 2 tcp 1040 ------- 2 1.0 2.0 4 69
- 0.2536 3 2 tcp 1040 ------- 2 1.0 2.0 4 69
- 0.25376 1 3 tcp 1040 ------- 2 1.0 2.0 6 73
r 0.25712 3 4 tcp 1040 ------- 1 0.0 4.0 25 42
+ 0.25712 4 3 ack 40 ------- 1 4.0 0.0 25 78
- 0.25712 4 3 ack 40 ------- 1 4.0 0.0 25 78
r 0.25712 4 3 ack 40 ------- 1 4.0 0.0 24 76
+ 0.25712 3 0 ack 40 ------- 1 4.0 0.0 24 76
- 0.25712 3 0 ack 40 ------- 1 4.0 0.0 24 76
r 0.25712 3 0 ack 40 ------- 1 4.0 0.0 23 74
+ 0.25712 0 3 tcp 1040 ------- 1 0.0 4.0 43 79
r 0.25728 0 3 tcp 1040 ------- 1 0.0 4.0 27 45
+ 0.25728 3 4 tcp 1040 ------- 1 0.0 4.0 27 45
- 0.25728 3 4 tcp 1040 ------- 1 0.0 4.0 27 45
- 0.25744 0 3 tcp 1040 ------- 1 0.0 4.0 29 50
r 0.2576 3 2 tcp 1040 ------- 2 1.0 2.0 3 68
+ 0.2576 2 3 ack 40 ------- 2 2.0 1.0 3 80
- 0.2576 2 3 ack 40 ------- 2 2.0 1.0 3 80
r 0.25776 1 3 tcp 1040 ------- 2 1.0 2.0 5 72
+ 0.25776 3 2 tcp 1040 ------- 2 1.0 2.0 5 72
- 0.25776 3 2 tcp 1040 ------- 2 1.0 2.0 5 72
r 0.26128 4 3 ack 40 ------- 1 4.0 0.0 25 78
+ 0.26128 3 0 ack 40 ------- 1 4.0 0.0 25 78
- 0.26128 3 0 ack 40 ------- 1 4.0 0.0 25 78
r 0.26128 3 4 tcp 1040 ------- 1 0.0 4.0 26 43
+ 0.26128 4 3 ack 40 ------- 1 4.0 0.0 26 81
- 0.26128 4 3 ack 40 ------- 1 4.0 0.0 26 81
r 0.26128 3 0 ack 40 ------- 1 4.0 0.0 24 76
+ 0.26128 0 3 tcp 1040 ------- 1 0.0 4.0 44 82
r 0.26144 0 3 tcp 1040 ------- 1 0.0 4.0 28 46
+ 0.26144 3 4 tcp 1040 ------- 1 0.0 4.0 28 46
- 0.26144 3 4 tcp 1040 ------- 1 0.0 4.0 28 46
- 0.2616 0 3 tcp 1040 ------- 1 0.0 4.0 30 51
r 0.26176 3 2 tcp 1040 ------- 2 1.0 2.0 4 69
+ 0.26176 2 3 ack 40 ------- 2 2.0 1.0 4 83
- 0.26176 2 3 ack 40 ------- 2 2.0 1.0 4 83
r 0.26176 2 3 ack 40 ------- 2 2.0 1.0 3 80
+ 0.26176 3 1 ack 40 ------- 2 2.0 1.0 3 80
- 0.26176 3 1 ack 40 ------- 2 2.0 1.0 3 80
r 0.26192 1 3 tcp 1040 ------- 2 1.0 2.0 6 73
+ 0.26192 3 2 tcp 1040 ------- 2 1.0 2.0 6 73
- 0.26192 3 2 tcp 1040 ------- 2 1.0 2.0 6 73
r 0.26544 3 0 ack 40 ------- 1 4.0 0.0 25 78
+ 0.26544 0 3 tcp 1040 ------- 1 0.0 4.0 45 84
r 0.26544 3 4 tcp 1040 ------- 1 0.0 4.0 27 45
+ 0.26544 4 3 ack 40 ------- 1 4.0 0.0 27 85
- 0.26544 4 3 ack 40 ------- 1 4.0 0.0 27 85
r 0.26544 4 3 ack 40 ------- 1 4.0 0.0 26 81
+ 0.26544 3 0 ack 40 ------- 1 4.0 0.0 26 81
- 0.26544 3 0 ack 40 ------- 1 4.0 0.0 26 81
r 0.2656 0 3 tcp 1040 ------- 1 0.0 4.0 29 50
+ 0.2656 3 4 tcp 1040 ------- 1 0.0 4.0 29 50
- 0.2656 3 4 tcp 1040 ------- 1 0.0 4.0 29 50
- 0.26576 0 3 tcp 1040 ------- 1 0.0 4.0 31 53
r 0.26592 3 2 tcp 1040 ------- 2 1.0 2.0 5 72
+ 0.26592 2 3 ack 40 ------- 2 2.0 1.0 5 86
- 0.26592 2 3 ack 40 ------- 2 2.0 1.0 5 86
r 0.26592 2 3 ack 40 ------- 2 2.0 1.0 4 83
+ 0.26592 3 1 ack 40 ------- 2 2.0 1.0 4 83
- 0.26592 3 1 ack 40 ------- 2 2.0 1.0 4 83
r 0.26592 3 1 ack 40 ------- 2 2.0 1.0 3 80
+ 0.26592 1 3 tcp 1040 ------- 2 1.0 2.0 7 87
- 0.26592 1 3 tcp 1040 ------- 2 1.0 2.0 7 87
+ 0.26592 1 3 tcp 1040 ------- 2 1.0 2.0 8 88
r 0.2696 3 4 tcp 1040 ------- 1 0.0 4.0 28 46
+ 0.2696 4 3 ack 40 ------- 1 4.0 0.0 28 89
- 0.2696 4 3 ack 40 ------- 1 4.0 0.0 28 89
r 0.2696 4 3 ack 40 ------- 1 4.0 0.0 27 85
+ 0.2696 3 0 ack 40 ------- 1 4.0 0.0 27 85
- 0.2696 3 0 ack 40 ------- 1 4.0 0.0 27 85
r 0.2696 3 0 ack 40 ------- 1 4.0 0.0 26 81
+ 0.2696 0 3 tcp 1040 ------- 1 0.0 4.0 46 90
r 0.26976 0 3 tcp 1040 ------- 1 0.0 4.0 30 51
+ 0.26976 3 4 tcp 1040 ------- 1 0.0 4.0 30 51
- 0.26976 3 4 tcp 1040 ------- 1 0.0 4.0 30 51
- 0.26992 0 3 tcp 1040 ------- 1 0.0 4.0 32 54
r 0.27008 3 2 tcp 1040 ------- 2 1.0 2.0 6 73
+ 0.27008 2 3 ack 40 ------- 2 2.0 1.0 6 91
- 0.27008 2 3 ack 40 ------- 2 2.0 1.0 6 91
r 0.27008 2 3 ack 40 ------- 2 2.0 1.0 5 86
+ 0.27008 3 1 ack 40 ------- 2 2.0 1.0 5 86
- 0.27008 3 1 ack 40 ------- 2 2.0 1.0 5 86
r 0.27008 3 1 ack 40 ------- 2 2.0 1.0 4 83
+ 0.27008 1 3 tcp 1040 ------- 2 1.0 2.0 9 92
+ 0.27008 1 3 tcp 1040 ------- 2 1.0 2.0 10 93
- 0.27008 1 3 tcp 1040 ------- 2 1.0 2.0 8 88
r 0.27376 3 4 tcp 1040 ------- 1 0.0 4.0 29 50
+ 0.27376 4 3 ack 40 ------- 1 4.0 0.0 29 94
- 0.27376 4 3 ack 40 ------- 1 4.0 0.0 29 94
r 0.27376 4 3 ack 40 ------- 1 4.0 0.0 28 89
+ 0.27376 3 0 ack 40 ------- 1 4.0 0.0 28 89
- 0.27376 3 0 ack 40 ------- 1 4.0 0.0 28 89
r 0.27376 3 0 ack 40 ------- 1 4.0 0.0 27 85
+ 0.27376 0 3 tcp 1040 ------- 1 0.0 4.0 47 95
r 0.27392 0 3 tcp 1040 ------- 1 0.0 4.0 31 53
+ 0.27392 3 4 tcp 1040 ------- 1 0.0 4.0 31 53
- 0.27392 3 4 tcp 1040 ------- 1 0.0 4.0 31 53
- 0.27408 0 3 tcp 1040 ------- 1 0.0 4.0 33 56
r 0.27408 1 3 tcp 1040 ------- 2 1.0 2.0 7 87
+ 0.27408 3 2 tcp 1040 ------- 2 1.0 2.0 7 87
- 0.27408 3 2 tcp 1040 ------- 2 1.0 2.0 7 87
r 0.27424 2 3 ack 40 ------- 2 2.0 1.0 6 91
+ 0.27424 3 1 ack 40 ------- 2 2.0 1.0 6 91
- 0.27424 3 1 ack 40 ------- 2 2.0 1.0 6 91
r 0.27424 3 1 ack 40 ------- 2 2.0 1.0 5 86
+ 0.27424 1 3 tcp 1040 ------- 2 1.0 2.0 11 96
+ 0.27424 1 3 tcp 1040 ------- 2 1.0 2.0 12 97
- 0.27424 1 3 tcp 1040 ------- 2 1.0 2.0 9 92
r 0.27792 3 4 tcp 1040 ------- 1 0.0 4.0 30 51
+ 0.27792 4 3 ack 40 ------- 1 4.0 0.0 30 98
- 0.27792 4 3 ack 40 ------- 1 4.0 0.0 30 98
r 0.27792 4 3 ack 40 ------- 1 4.0 0.0 29 94
+ 0.27792 3 0 ack 40 ------- 1 4.0 0.0 29 94
- 0.27792 3 0 ack 40 ------- 1 4.0 0.0 29 94
r 0.27792 3 0 ack 40 ------- 1 4.0 0.0 28 89
+ 0.27792 0 3 tcp 1040 ------- 1 0.0 4.0 48 99
r 0.27808 0 3 tcp 1040 ------- 1 0.0 4.0 32 54
+ 0.27808 3 4 tcp 1040 ------- 1 0.0 4.0 32 54
- 0.27808 3 4 tcp 1040 ------- 1 0.0 4.0 32 54
- 0.27824 0 3 tcp 1040 ------- 1 0.0 4.0 34 57
r 0.27824 1 3 tcp 1040 ------- 2 1.0 2.0 8 88
+ 0.27824 3 2 tcp 1040 ------- 2 1.0 2.0 8 88
- 0.27824 3 2 tcp 1040 ------- 2 1.0 2.0 8 88
r 0.2784 3 1 ack 40 ------- 2 2.0 1.0 6 91
+ 0.2784 1 3 tcp 1040 ------- 2 1.0 2.0 13 100
+ 0.2784 1 3 tcp 1040 ------- 2 1.0 2.0 14 101
- 0.2784 1 3 tcp 1040 ------- 2 1.0 2.0 10 93
r 0.28208 3 4 tcp 1040 ------- 1 0.0 4.0 31 53
+ 0.28208 4 3 ack 40 ------- 1 4.0 0.0 31 102
- 0.28208 4 3 ack 40 ------- 1 4.0 0.0 31 102
r 0.28208 4 3 ack 40 ------- 1 4.0 0.0 30 98
+ 0.28208 3 0 ack 40 ------- 1 4.0 0.0 30 98
- 0.28208 3 0 ack 40 ------- 1 4.0 0.0 30 98
r 0.28208 3 0 ack 40 ------- 1 4.0 0.0 29 94
+ 0.28208 0 3 tcp 1040 ------- 1 0.0 4.0 49 103
r 0.28224 0 3 tcp 1040 ------- 1 0.0 4.0 33 56
+ 0.28224 3 4 tcp 1040 ------- 1 0.0 4.0 33 56
- 0.28224 3 4 tcp 1040 ------- 1 0.0 4.0 33 56
r 0.28224 3 2 tcp 1040 ------- 2 1.0 2.0 7 87
+ 0.28224 2 3 ack 40 ------- 2 2.0 1.0 7 104
- 0.28224 2 3 ack 40 ------- 2 2.0 1.0 7 104
- 0.2824 0 3 tcp 1040 ------- 1 0.0 4.0 35 59
r 0.2824 1 3 tcp 1040 ------- 2 1.0 2.0 9 92
+ 0.2824 3 2 tcp 1040 ------- 2 1.0 2.0 9 92
- 0.2824 3 2 tcp 1040 ------- 2 1.0 2.0 9 92
- 0.28256 1 3 tcp 1040 ------- 2 1.0 2.0 11 96
r 0.28624 3 4 tcp 1040 ------- 1 0.0 4.0 32 54
+ 0.28624 4 3 ack 40 ------- 1 4.0 0.0 32 105
- 0.28624 4 3 ack 40 ------- 1 4.0 0.0 32 105
r 0.28624 4 3 ack 40 ------- 1 4.0 0.0 31 102
+ 0.28624 3 0 ack 40 ------- 1 4.0 0.0 31 102
- 0.28624 3 0 ack 40 ------- 1 4.0 0.0 31 102
r 0.28624 3 0 ack 40 ------- 1 4.0 0.0 30 98
+ 0.28624 0 3 tcp 1040 ------- 1 0.0 4.0 50 106
r 0.2864 0 3 tcp 1040 ------- 1 0.0 4.0 34 57
+ 0.2864 3 4 tcp 1040 ------- 1 0.0 4.0 34 57
- 0.2864 3 4 tcp 1040 ------- 1 0.0 4.0 34 57
r 0.2864 3 2 tcp 1040 ------- 2 1.0 2.0 8 88
+ 0.2864 2 3 ack 40 ------- 2 2.0 1.0 8 107
- 0.2864 2 3 ack 40 ------- 2 2.0 1.0 8 107
r 0.2864 2 3 ack 40 ------- 2 2.0 1.0 7 104
+ 0.2864 3 1 ack 40 ------- 2 2.0 1.0 7 104
- 0.2864 3 1 ack 40 ------- 2 2.0 1.0 7 104
- 0.28656 0 3 tcp 1040 ------- 1 0.0 4.0 36 60
r 0.28656 1 3 tcp 1040 ------- 2 1.0 2.0 10 93
+ 0.28656 3 2 tcp 1040 ------- 2 1.0 2.0 10 93
- 0.28656 3 2 tcp 1040 ------- 2 1.0 2.0 10 93
- 0.28672 1 3 tcp 1040 ------- 2 1.0 2.0 12 97
r 0.2904 3 4 tcp 1040 ------- 1 0.0 4.0 33 56
+ 0.2904 4 3 ack 40 ------- 1 4.0 0.0 33 108
- 0.2904 4 3 ack 40 ------- 1 4.0 0.0 33 108
r 0.2904 4 3 ack 40 ------- 1 4.0 0.0 32 105
+ 0.2904 3 0 ack 40 ------- 1 4.0 0.0 32 105
- 0.2904 3 0 ack 40 ------- 1 4.0 0.0 32 105
r 0.2904 3 0 ack 40 ------- 1 4.0 0.0 31 102
+ 0.2904 0 3 tcp 1040 ------- 1 0.0 4.0 51 109
r 0.29056 0 3 tcp 1040 ------- 1 0.0 4.0 35 59
+ 0.29056 3 4 tcp 1040 ------- 1 0.0 4.0 35 59
- 0.29056 3 4 tcp 1040 ------- 1 0.0 4.0 35 59
r 0.29056 3 2 tcp 1040 ------- 2 1.0 2.0 9 92
+ 0.29056 2 3 ack 40 ------- 2 2.0 1.0 9 110
- 0.29056 2 3 ack 40 ------- 2 2.0 1.0 9 110
r 0.29056 2 3 ack 40 ------- 2 2.0 1.0 8 107
+ 0.29056 3 1 ack 40 ------- 2 2.0 1.0 8 107
- 0.29056 3 1 ack 40 ------- 2 2.0 1.0 8 107
r 0.29056 3 1 ack 40 ------- 2 2.0 1.0 7 104
+ 0.29056 1 3 tcp 1040 ------- 2 1.0 2.0 15 111
+ 0.29056 1 3 tcp 1040 ------- 2 1.0 2.0 16 112
- 0.29072 0 3 tcp 1040 ------- 1 0.0 4.0 37 63
r 0.29072 1 3 tcp 1040 ------- 2 1.0 2.0 11 96
+ 0.29072 3 2 tcp 1040 ------- 2 1.0 2.0 11 96
- 0.29072 3 2 tcp 1040 ------- 2 1.0 2.0 11 96
- 0.29088 1 3 tcp 1040 ------- 2 1.0 2.0 13 100
r 0.29456 3 4 tcp 1040 ------- 1 0.0 4.0 34 57
+ 0.29456 4 3 ack 40 ------- 1 4.0 0.0 34 113
- 0.29456 4 3 ack 40 ------- 1 4.0 0.0 34 113
r 0.29456 4 3 ack 40 ------- 1 4.0 0.0 33 108
+ 0.29456 3 0 ack 40 ------- 1 4.0 0.0 33 108
- 0.29456 3 0 ack 40 ------- 1 4.0 0.0 33 108
r 0.29456 3 0 ack 40 ------- 1 4.0 0.0 32 105
+ 0.29456 0 3 tcp 1040 ------- 1 0.0 4.0 52 114
r 0.29472 0 3 tcp 1040 ------- 1 0.0 4.0 36 60
+ 0.29472 3 4 tcp 1040 ------- 1 0.0 4.0 36 60
- 0.29472 3 4 tcp 1040 ------- 1 0.0 4.0 36 60
r 0.29472 3 2 tcp 1040 ------- 2 1.0 2.0 10 93
+ 0.29472 2 3 ack 40 ------- 2 2.0 1.0 10 115
- 0.29472 2 3 ack 40 ------- 2 2.0 1.0 10 115
r 0.29472 2 3 ack 40 ------- 2 2.0 1.0 9 110
+ 0.29472 3 1 ack 40 ------- 2 2.0 1.0 9 110
- 0.29472 3 1 ack 40 ------- 2 2.0 1.0 9 110
r 0.29472 3 1 ack 40 ------- 2 2.0 1.0 8 107
+ 0.29472 1 3 tcp 1040 ------- 2 1.0 2.0 17 116
+ 0.29472 1 3 tcp 1040 ------- 2 1.0 2.0 18 117
- 0.29488 0 3 tcp 1040 ------- 1 0.0 4.0 38 64
r 0.29488 1 3 tcp 1040 ------- 2 1.0 2.0 12 97
+ 0.29488 3 2 tcp 1040 ------- 2 1.0 2.0 12 97
- 0.29488 3 2 tcp 1040 ------- 2 1.0 2.0 12 97
- 0.29504 1 3 tcp 1040 ------- 2 1.0 2.0 14 101
r 0.29872 3 4 tcp 1040 ------- 1 0.0 4.0 35 59
+ 0.29872 4 3 ack 40 ------- 1 4.0 0.0 35 118
- 0.29872 4 3 ack 40 ------- 1 4.0 0.0 35 118
r 0.29872 4 3 ack 40 ------- 1 4.0 0.0 34 113
+ 0.29872 3 0 ack 40 ------- 1 4.0 0.0 34 113
- 0.29872 3 0 ack 40 ------- 1 4.0 0.0 34 113
r 0.29872 3 0 ack 40 ------- 1 4.0 0.0 33 108
+ 0.29872 0 3 tcp 1040 ------- 1 0.0 4.0 53 119
r 0.29888 0 3 tcp 1040 ------- 1 0.0 4.0 37 63
+ 0.29888 3 4 tcp 1040 ------- 1 0.0 4.0 37 63
- 0.29888 3 4 tcp 1040 ------- 1 0.0 4.0 37 63
r 0.29888 3 2 tcp 1040 ------- 2 1.0 2.0 11 96
+ 0.29888 2 3 ack 40 ------- 2 2.0 1.0 11 120
- 0.29888 2 3 ack 40 ------- 2 2.0 1.0 11 120
r 0.29888 2 3 ack 40 ------- 2 2.0 1.0 10 115
+ 0.29888 3 1 ack 40 ------- 2 2.0 1.0 10 115
- 0.29888 3 1 ack 40 ------- 2 2.0 1.0 10 115
r 0.29888 3 1 ack 40 ------- 2 2.0 1.0 9 110
+ 0.29888 1 3 tcp 1040 ------- 2 1.0 2.0 19 121
+ 0.29888 1 3 tcp 1040 ------- 2 1.0 2.0 20 122
- 0.29904 0 3 tcp 1040 ------- 1 0.0 4.0 39 67
r 0.29904 1 3 tcp 1040 ------- 2 1.0 2.0 13 100
+ 0.29904 3 2 tcp 1040 ------- 2 1.0 2.0 13 100
- 0.29904 3 2 tcp 1040 ------- 2 1.0 2.0 13 100
- 0.2992 1 3 tcp 1040 ------- 2 1.0 2.0 15 111
r 0.30288 3 4 tcp 1040 ------- 1 0.0 4.0 36 60
+ 0.30288 4 3 ack 40 ------- 1 4.0 0.0 36 123
- 0.30288 4 3 ack 40 ------- 1 4.0 0.0 36 123
r 0.30288 4 3 ack 40 ------- 1 4.0 0.0 35 118
+ 0.30288 3 0 ack 40 ------- 1 4.0 0.0 35 118
- 0.30288 3 0 ack 40 ------- 1 4.0 0.0 35 118
r 0.30288 3 0 ack 40 ------- 1 4.0 0.0 34 113
+ 0.30288 0 3 tcp 1040 ------- 1 0.0 4.0 54 124
r 0.30304 0 3 tcp 1040 ------- 1 0.0 4.0 38 64
+ 0.30304 3 4 tcp 1040 ------- 1 0.0 4.0 38 64
- 0.30304 3 4 tcp 1040 ------- 1 0.0 4.0 38 64
r 0.30304 3 2 tcp 1040 ------- 2 1.0 2.0 12 97
+ 0.30304 2 3 ack 40 ------- 2 2.0 1.0 12 125
- 0.30304 2 3 ack 40 ------- 2 2.0 1.0 12 125
r 0.30304 2 3 ack 40 ------- 2 2.0 1.0 11 120
+ 0.30304 3 1 ack 40 ------- 2 2.0 1.0 11 120
- 0.30304 3 1 ack 40 ------- 2 2.0 1.0 11 120
r 0.30304 3 1 ack 40 ------- 2 2.0 1.0 10 115
+ 0.30304 1 3 tcp 1040 ------- 2 1.0 2.0 21 126
+ 0.30304 1 3 tcp 1040 ------- 2 1.0 2.0 22 127
- 0.3032 0 3 tcp 1040 ------- 1 0.0 4.0 40 71
r 0.3032 1 3 tcp 1040 ------- 2 1.0 2.0 14 101
+ 0.3032 3 2 tcp 1040 ------- 2 1.0 2.0 14 101
- 0.3032 3 2 tcp 1040 ------- 2 1.0 2.0 14 101
- 0.30336 1 3 tcp 1040 ------- 2 1.0 2.0 16 112
r 0.30704 3 4 tcp 1040 ------- 1 0.0 4.0 37 63
+ 0.30704 4 3 ack 40 ------- 1 4.0 0.0 37 128
- 0.30704 4 3 ack 40 ------- 1 4.0 0.0 37 128
r 0.30704 4 3 ack 40 ------- 1 4.0 0.0 36 123
+ 0.30704 3 0 ack 40 ------- 1 4.0 0.0 36 123
- 0.30704 3 0 ack 40 ------- 1 4.0 0.0 36 123
r 0.30704 3 0 ack 40 ------- 1 4.0 0.0 35 118
+ 0.30704 0 3 tcp 1040 ------- 1 0.0 4.0 55 129
r 0.3072 0 3 tcp 1040 ------- 1 0.0 4.0 39 67
+ 0.3072 3 4 tcp 1040 ------- 1 0.0 4.0 39 67
- 0.3072 3 4 tcp 1040 ------- 1 0.0 4.0 39 67
r 0.3072 3 2 tcp 1040 ------- 2 1.0 2.0 13 100
+ 0.3072 2 3 ack 40 ------- 2 2.0 1.0 13 130
- 0.3072 2 3 ack 40 ------- 2 2.0 1.0 13 130
r 0.3072 2 3 ack 40 ------- 2 2.0 1.0 12 125
+ 0.3072 3 1 ack 40 ------- 2 2.0 1.0 12 125
- 0.3072 3 1 ack 40 ------- 2 2.0 1.0 12 125
r 0.3072 3 1 ack 40 ------- 2 2.0 1.0 11 120
+ 0.3072 1 3 tcp 1040 ------- 2 1.0 2.0 23 131
+ 0.3072 1 3 tcp 1040 ------- 2 1.0 2.0 24 132
- 0.30736 0 3 tcp 1040 ------- 1 0.0 4.0 41 75